# vtk DataFile Version 3.0
#This file was generated by the deal.II library on 2012/2/18 at 13:20:41
ASCII
DATASET UNSTRUCTURED_GRID

POINTS 8240 double
-0.00406163 0.353915 2.97905
-1.43802e-10 1.43802e-10 3
0.349668 0.344895 2.95952
0.34561 -0.00838424 2.98001
-0.00406163 0.353915 2.97905
-0.359293 0.351941 2.95754
-1.43802e-10 1.43802e-10 3
-0.358736 -0.00323758 2.97847
-1.43802e-10 1.43802e-10 3
-0.358736 -0.00323758 2.97847
-0.00263061 -0.354927 2.97893
-0.354217 -0.356333 2.95763
-1.43802e-10 1.43802e-10 3
-0.00263061 -0.354927 2.97893
0.34561 -0.00838424 2.98001
0.342569 -0.354319 2.95924
-1.43802e-10 1.43802e-10 -3
0.344982 0.008064 -2.98009
-0.00177119 -0.35622 -2.97878
0.348983 -0.34522 -2.95957
-0.357922 0.00197681 -2.97857
-1.43802e-10 1.43802e-10 -3
-0.358019 -0.352705 -2.9576
-0.00177119 -0.35622 -2.97878
-0.355789 0.357619 -2.95728
-0.00397508 0.356861 -2.9787
-0.357922 0.00197681 -2.97857
-1.43802e-10 1.43802e-10 -3
-0.00397508 0.356861 -2.9787
0.341019 0.355189 -2.95932
-1.43802e-10 1.43802e-10 -3
0.344982 0.008064 -2.98009
-0.00397508 0.356861 -2.9787
-0.000716369 0.70468 -2.91606
0.341019 0.355189 -2.95932
0.342762 0.69572 -2.89801
-0.355789 0.357619 -2.95728
-0.347162 0.706225 -2.89495
-0.00397508 0.356861 -2.9787
-0.000716369 0.70468 -2.91606
-0.702636 0.359697 -2.89429
-0.690103 0.703703 -2.83347
-0.355789 0.357619 -2.95728
-0.347162 0.706225 -2.89495
-0.702636 0.359697 -2.89429
-0.355789 0.357619 -2.95728
-0.707208 0.00835491 -2.91544
-0.357922 0.00197681 -2.97857
-0.707208 0.00835491 -2.91544
-0.357922 0.00197681 -2.97857
-0.706796 -0.34172 -2.89546
-0.358019 -0.352705 -2.9576
-0.706796 -0.34172 -2.89546
-0.358019 -0.352705 -2.9576
-0.703386 -0.68729 -2.83423
-0.359359 -0.699811 -2.89502
-0.358019 -0.352705 -2.9576
-0.00177119 -0.35622 -2.97878
-0.359359 -0.699811 -2.89502
-0.00784562 -0.703524 -2.91633
-0.00177119 -0.35622 -2.97878
0.348983 -0.34522 -2.95957
-0.00784562 -0.703524 -2.91633
0.34277 -0.691919 -2.89892
0.689283 -0.32053 -2.90209
0.686629 -0.665547 -2.84352
0.348983 -0.34522 -2.95957
0.34277 -0.691919 -2.89892
0.680681 0.0214339 -2.92168
0.689283 -0.32053 -2.90209
0.344982 0.008064 -2.98009
0.348983 -0.34522 -2.95957
0.6675 0.353699 -2.90333
0.680681 0.0214339 -2.92168
0.341019 0.355189 -2.95932
0.344982 0.008064 -2.98009
0.6675 0.353699 -2.90333
0.341019 0.355189 -2.95932
0.673861 0.677585 -2.84373
0.342762 0.69572 -2.89801
0.682442 1.00026 -2.74477
0.673861 0.677585 -2.84373
0.348198 1.02729 -2.79704
0.342762 0.69572 -2.89801
0.00715023 1.04071 -2.81369
0.348198 1.02729 -2.79704
-0.000716369 0.70468 -2.91606
0.342762 0.69572 -2.89801
-0.00263061 -0.354927 2.97893
0.00134728 -0.699234 2.91737
0.342569 -0.354319 2.95924
0.343734 -0.692392 2.8987
-0.00263061 -0.354927 2.97893
-0.354217 -0.356333 2.95763
0.00134728 -0.699234 2.91737
-0.345436 -0.699592 2.89676
-0.701951 -0.355448 2.89498
-0.689303 -0.69577 2.83562
-0.354217 -0.356333 2.95763
-0.345436 -0.699592 2.89676
-0.707115 -0.00641034 2.91547
-0.701951 -0.355448 2.89498
-0.358736 -0.00323758 2.97847
-0.354217 -0.356333 2.95763
-0.706597 0.342796 2.89538
-0.707115 -0.00641034 2.91547
-0.359293 0.351941 2.95754
-0.358736 -0.00323758 2.97847
-0.703716 0.687307 2.83415
-0.706597 0.342796 2.89538
-0.359691 0.698866 2.8952
-0.359293 0.351941 2.95754
-0.00869899 0.70173 2.91676
-0.359691 0.698866 2.8952
-0.00406163 0.353915 2.97905
-0.359293 0.351941 2.95754
-0.00869899 0.70173 2.91676
-0.00406163 0.353915 2.97905
0.342571 0.689295 2.89957
0.349668 0.344895 2.95952
0.342571 0.689295 2.89957
0.349668 0.344895 2.95952
0.68712 0.661476 2.84435
0.689881 0.317873 2.90224
0.349668 0.344895 2.95952
0.34561 -0.00838424 2.98001
0.689881 0.317873 2.90224
0.680885 -0.023182 2.92162
0.34561 -0.00838424 2.98001
0.342569 -0.354319 2.95924
0.680885 -0.023182 2.92162
0.66787 -0.353954 2.90322
0.342569 -0.354319 2.95924
0.343734 -0.692392 2.8987
0.66787 -0.353954 2.90322
0.673878 -0.676746 2.84392
0.343734 -0.692392 2.8987
0.348459 -1.02132 2.79919
0.673878 -0.676746 2.84392
0.682092 -0.998685 2.74543
0.00134728 -0.699234 2.91737
0.0082136 -1.03101 2.81726
0.343734 -0.692392 2.8987
0.348459 -1.02132 2.79919
-0.335385 1.044 -2.79241
0.00715023 1.04071 -2.81369
-0.347162 0.706225 -2.89495
-0.000716369 0.70468 -2.91606
-0.674094 1.03914 -2.73236
-0.335385 1.044 -2.79241
-0.690103 0.703703 -2.83347
-0.347162 0.706225 -2.89495
-1.00255 1.02601 -2.63481
-0.674094 1.03914 -2.73236
-1.02415 0.698522 -2.73188
-0.690103 0.703703 -2.83347
-1.03872 0.359855 -2.79134
-1.02415 0.698522 -2.73188
-0.702636 0.359697 -2.89429
-0.690103 0.703703 -2.83347
-1.03872 0.359855 -2.79134
-0.702636 0.359697 -2.89429
-1.04547 0.0154241 -2.8119
-0.707208 0.00835491 -2.91544
-1.04547 0.0154241 -2.8119
-0.707208 0.00835491 -2.91544
-1.0445 -0.330011 -2.79287
-0.706796 -0.34172 -2.89546
-1.0445 -0.330011 -2.79287
-0.706796 -0.34172 -2.89546
-1.03758 -0.671267 -2.73365
-0.703386 -0.68729 -2.83423
-1.03758 -0.671267 -2.73365
-0.703386 -0.68729 -2.83423
-1.02346 -1.00069 -2.6365
-0.697373 -1.02272 -2.73271
-0.703386 -0.68729 -2.83423
-0.359359 -0.699811 -2.89502
-0.697373 -1.02272 -2.73271
-0.358669 -1.03797 -2.79177
-0.359359 -0.699811 -2.89502
-0.00784562 -0.703524 -2.91633
-0.358669 -1.03797 -2.79177
-0.0130198 -1.04137 -2.81343
-0.00784562 -0.703524 -2.91633
0.34277 -0.691919 -2.89892
-0.0130198 -1.04137 -2.81343
0.33243 -1.03066 -2.79772
0.686629 -0.665547 -2.84352
0.674889 -1.00387 -2.74532
0.34277 -0.691919 -2.89892
0.33243 -1.03066 -2.79772
1.02161 -0.621064 -2.75147
1.00779 -0.961842 -2.65692
0.686629 -0.665547 -2.84352
0.674889 -1.00387 -2.74532
1.01813 -0.276874 -2.80834
1.02161 -0.621064 -2.75147
0.689283 -0.32053 -2.90209
0.686629 -0.665547 -2.84352
0.991301 0.054832 -2.83096
1.01813 -0.276874 -2.80834
0.680681 0.0214339 -2.92168
0.689283 -0.32053 -2.90209
0.960867 0.351494 -2.82014
0.991301 0.054832 -2.83096
0.6675 0.353699 -2.90333
0.680681 0.0214339 -2.92168
0.960867 0.351494 -2.82014
0.6675 0.353699 -2.90333
0.984384 0.638772 -2.76097
0.673861 0.677585 -2.84373
1.00831 0.950912 -2.66065
0.984384 0.638772 -2.76097
0.682442 1.00026 -2.74477
0.673861 0.677585 -2.84373
1.0115 1.26516 -2.52512
1.00831 0.950912 -2.66065
0.685886 1.31443 -2.60803
0.682442 1.00026 -2.74477
0.685886 1.31443 -2.60803
0.682442 1.00026 -2.74477
0.352725 1.34578 -2.65791
0.348198 1.02729 -2.79704
0.0150307 1.36236 -2.67278
0.352725 1.34578 -2.65791
0.00715023 1.04071 -2.81369
0.348198 1.02729 -2.79704
0.00134728 -0.699234 2.91737
-0.345436 -0.699592 2.89676
0.0082136 -1.03101 2.81726
-0.334711 -1.03198 2.79696
-0.689303 -0.69577 2.83562
-0.67396 -1.02614 2.7373
-0.345436 -0.699592 2.89676
-0.334711 -1.03198 2.79696
-1.02353 -0.69053 2.73414
-1.0016 -1.01398 2.63982
-0.689303 -0.69577 2.83562
-0.67396 -1.02614 2.7373
-1.03828 -0.35472 2.79216
-1.02353 -0.69053 2.73414
-0.701951 -0.355448 2.89498
-0.689303 -0.69577 2.83562
-1.0453 -0.0124054 2.81197
-1.03828 -0.35472 2.79216
-0.707115 -0.00641034 2.91547
-0.701951 -0.355448 2.89498
-1.04523 0.332302 2.79232
-1.0453 -0.0124054 2.81197
-0.706597 0.342796 2.89538
-0.707115 -0.00641034 2.91547
-1.03781 0.672393 2.73328
-1.04523 0.332302 2.79232
-0.703716 0.687307 2.83415
-0.706597 0.342796 2.89538
-1.02338 0.999795 2.63687
-1.03781 0.672393 2.73328
-0.697307 1.02147 2.7332
-0.703716 0.687307 2.83415
-0.697307 1.02147 2.7332
-0.703716 0.687307 2.83415
-0.359433 1.03578 2.79248
-0.359691 0.698866 2.8952
-0.0137053 1.03787 2.81472
-0.359433 1.03578 2.79248
-0.00869899 0.70173 2.91676
-0.359691 0.698866 2.8952
-0.0137053 1.03787 2.81472
-0.00869899 0.70173 2.91676
0.331938 1.02578 2.79957
0.342571 0.689295 2.89957
0.331938 1.02578 2.79957
0.342571 0.689295 2.89957
0.67443 0.997638 2.7477
0.68712 0.661476 2.84435
0.67443 0.997638 2.7477
0.68712 0.661476 2.84435
1.00786 0.954588 2.65951
1.02136 0.615984 2.7527
0.68712 0.661476 2.84435
0.689881 0.317873 2.90224
1.02136 0.615984 2.7527
1.01777 0.273613 2.80879
0.689881 0.317873 2.90224
0.680885 -0.023182 2.92162
1.01777 0.273613 2.80879
0.990808 -0.0567345 2.83109
0.680885 -0.023182 2.92162
0.66787 -0.353954 2.90322
0.990808 -0.0567345 2.83109
0.960576 -0.35244 2.82012
0.66787 -0.353954 2.90322
0.673878 -0.676746 2.84392
0.960576 -0.35244 2.82012
0.98372 -0.639421 2.76106
0.673878 -0.676746 2.84392
0.682092 -0.998685 2.74543
0.98372 -0.639421 2.76106
1.00707 -0.952665 2.66049
0.682092 -0.998685 2.74543
0.684151 -1.31419 2.60861
1.00707 -0.952665 2.66049
1.00897 -1.26958 2.52391
0.348459 -1.02132 2.79919
0.350861 -1.3382 2.66198
0.682092 -0.998685 2.74543
0.684151 -1.31419 2.60861
0.0082136 -1.03101 2.81726
0.0130555 -1.34823 2.67995
0.348459 -1.02132 2.79919
0.350861 -1.3382 2.66198
-0.323632 1.36777 -2.65037
0.0150307 1.36236 -2.67278
-0.335385 1.044 -2.79241
0.00715023 1.04071 -2.81369
-0.657787 1.36084 -2.59141
-0.323632 1.36777 -2.65037
-0.674094 1.03914 -2.73236
-0.335385 1.044 -2.79241
-0.979112 1.34004 -2.49912
-0.657787 1.36084 -2.59141
-1.00255 1.02601 -2.63481
-0.674094 1.03914 -2.73236
-1.2843 1.30905 -2.37423
-0.979112 1.34004 -2.49912
-1.31526 1.00677 -2.5013
-1.00255 1.02601 -2.63481
-1.31526 1.00677 -2.5013
-1.00255 1.02601 -2.63481
-1.34177 0.688178 -2.59347
-1.02415 0.698522 -2.73188
-1.35939 0.357676 -2.65031
-1.34177 0.688178 -2.59347
-1.03872 0.359855 -2.79134
-1.02415 0.698522 -2.73188
-1.35939 0.357676 -2.65031
-1.03872 0.359855 -2.79134
-1.36776 0.0200797 -2.66998
-1.04547 0.0154241 -2.8119
-1.36776 0.0200797 -2.66998
-1.04547 0.0154241 -2.8119
-1.36649 -0.319674 -2.65151
-1.0445 -0.330011 -2.79287
-1.36649 -0.319674 -2.65151
-1.0445 -0.330011 -2.79287
-1.35617 -0.653626 -2.59491
-1.03758 -0.671267 -2.73365
-1.35617 -0.653626 -2.59491
-1.03758 -0.671267 -2.73365
-1.33512 -0.979049 -2.50178
-1.02346 -1.00069 -2.6365
-1.33512 -0.979049 -2.50178
-1.02346 -1.00069 -2.6365
-1.3046 -1.28652 -2.37547
-1.0037 -1.31653 -2.50187
-1.02346 -1.00069 -2.6365
-0.697373 -1.02272 -2.73271
-1.0037 -1.31653 -2.50187
-0.686052 -1.34335 -2.59321
-0.697373 -1.02272 -2.73271
-0.358669 -1.03797 -2.79177
[...]
POINT_DATA 8240
SCALARS phi double 1
LOOKUP_TABLE default
0.0316084 0.00365267 0.0314558 0.00346857 0.0316084 0.0313055 0.00365267 0.00378406 0.00365267 0.00378406 0.0314726 0.00358772 0.00365267 0.0314726 0.00346857 0.0312543 -0.0314163 -0.00356928 -0.0314992 -0.00356279 -0.0314491 -0.0314163 -0.00353139 -0.0314992 -0.031368 -0.00368734 -0.0314491 -0.0314163 -0.00368734 -0.0313902 -0.0314163 -0.00356928 -0.00368734 -0.0308841 -0.0313902 -0.0308174 -0.031368 -0.0306724 -0.00368734 -0.0308841 -0.0303158 -0.0302513 -0.031368 -0.0306724 -0.0303158 -0.031368 -0.0308557 -0.0314491 -0.0308557 -0.0314491 -0.0306621 -0.00353139 -0.0306621 -0.00353139 -0.0300194 -0.0306436 -0.00353139 -0.0314992 -0.0306436 -0.0308393 -0.0314992 -0.00356279 -0.0308393 -0.0306541 -0.0304045 -0.0303332 -0.00356279 -0.0306541 -0.0308972 -0.0304045 -0.00356928 -0.00356279 -0.0306827 -0.0308972 -0.0313902 -0.00356928 -0.0306827 -0.0313902 -0.0300818 -0.0308174 -0.0290431 -0.0300818 -0.0295813 -0.0308174 -0.0297611 -0.0295813 -0.0308841 -0.0308174 0.0314726 0.0307786 0.0312543 0.0306405 0.0314726 0.00358772 0.0307786 0.0306532 0.0303362 0.0302621 0.00358772 0.0306532 0.0308265 0.0303362 0.00378406 0.00358772 0.030621 0.0308265 0.0313055 0.00378406 0.0299989 0.030621 0.0305176 0.0313055 0.030927 0.0305176 0.0316084 0.0313055 0.030927 0.0316084 0.0306875 0.0314558 0.0306875 0.0314558 0.030121 0.030734 0.0314558 0.00346857 0.030734 0.0309592 0.00346857 0.0312543 0.0309592 0.0307782 0.0312543 0.0306405 0.0307782 0.0301375 0.0306405 0.0293957 0.0301375 0.029308 0.0307786 0.0296735 0.0306405 0.0293957 -0.0295447 -0.0297611 -0.0306724 -0.0308841 -0.0289256 -0.0295447 -0.0302513 -0.0306724 -0.0279165 -0.0289256 -0.0288228 -0.0302513 -0.0296438 -0.0288228 -0.0303158 -0.0302513 -0.0296438 -0.0303158 -0.0297889 -0.0308557 -0.0297889 -0.0308557 -0.0295924 -0.0306621 -0.0295924 -0.0306621 -0.0289794 -0.0300194 -0.0289794 -0.0300194 -0.0279681 -0.0289614 -0.0300194 -0.0306436 -0.0289614 -0.029562 -0.0306436 -0.0308393 -0.029562 -0.0297751 -0.0308393 -0.0306541 -0.0297751 -0.0296245 -0.0303332 -0.0290437 -0.0306541 -0.0296245 -0.0287884 -0.0286648 -0.0303332 -0.0290437 -0.0297956 -0.0287884 -0.0304045 -0.0303332 -0.0300633 -0.0297956 -0.0308972 -0.0304045 -0.0301055 -0.0300633 -0.0306827 -0.0308972 -0.0301055 -0.0306827 -0.0292686 -0.0300818 -0.0283202 -0.0292686 -0.0290431 -0.0300818 -0.0271175 -0.0283202 -0.0277144 -0.0290431 -0.0277144 -0.0290431 -0.0281555 -0.0295813 -0.0283138 -0.0281555 -0.0297611 -0.0295813 0.0307786 0.0306532 0.0296735 0.0296596 0.0302621 0.0289619 0.0306532 0.0296596 0.0285184 0.0284336 0.0302621 0.0289619 0.0296298 0.0285184 0.0303362 0.0302621 0.0298659 0.0296298 0.0308265 0.0303362 0.0296965 0.0298659 0.030621 0.0308265 0.0291395 0.0296965 0.0299989 0.030621 0.0283635 0.0291395 0.0291404 0.0299989 0.0291404 0.0299989 0.0295812 0.0305176 0.0300333 0.0295812 0.030927 0.0305176 0.0300333 0.030927 0.0297739 0.0306875 0.0297739 0.0306875 0.0292442 0.030121 0.0292442 0.030121 0.028352 0.0291672 0.030121 0.030734 0.0291672 0.0297732 0.030734 0.0309592 0.0297732 0.0300502 0.0309592 0.0307782 0.0300502 0.0300039 0.0307782 0.0301375 0.0300039 0.0293145 0.0301375 0.029308 0.0293145 0.0282025 0.029308 0.0272357 0.0282025 0.0271249 0.0293957 0.0281762 0.029308 0.0272357 0.0296735 0.028228 0.0293957 0.0281762 -0.0281221 -0.0283138 -0.0295447 -0.0297611 -0.027575 -0.0281221 -0.0289256 -0.0295447 -0.0266859 -0.027575 -0.0279165 -0.0289256 -0.0254253 -0.0266859 -0.0265282 -0.0279165 -0.0265282 -0.0279165 -0.0273274 -0.0288228 -0.028244 -0.0273274 -0.0296438 -0.0288228 -0.028244 -0.0296438 -0.0283136 -0.0297889 -0.0283136 -0.0297889 -0.0281241 -0.0295924 -0.0281241 -0.0295924 -0.0275348 -0.0289794 -0.0275348 -0.0289794 -0.0265613 -0.0279681 -0.0265613 -0.0279681 -0.0252396 -0.0265593 -0.0279681 -0.0289614 -0.0265593 -0.0275051 -0.0289614 -0.029562 -0.0275051 -0.0280859 -0.029562 -0.0297751 -0.0280859 -0.0282937 -0.0297751 -0.0296245 -0.0282937 -0.0281891 -0.0290437 -0.0276175 -0.0296245 -0.0281891 -0.0286648 -0.026807 -0.0290437 -0.0276175 -0.0286648 -0.0261988 -0.026807 -0.0260248 -0.0287884 -0.027751 -0.0286648 -0.0261988 -0.0297956 -0.0283651 -0.0287884 -0.027751 -0.0300633 -0.0286857 -0.0297956 -0.0283651 -0.0301055 -0.0258394 -0.0300633 -0.0286857 -0.0301055 -0.0292686 -0.0258394 -0.0280242 -0.0283202 -0.0269895 -0.0292686 -0.0280242 -0.0271175 -0.0257285 -0.0283202 -0.0269895 -0.0271175 -0.0243695 -0.0257285 -0.0243651 -0.0271175 -0.0277144 -0.0243695 -0.0257646 -0.0277144 -0.0281555 -0.0257646 -0.0262916 -0.0283138 -0.0263975 -0.0281555 -0.0262916 0.0296735 0.0296596 0.028228 0.0282412 0.0289619 0.0275461 0.0296596 0.0282412 0.0284336 0.0265643 0.0289619 0.0275461 0.0284336 0.0259686 0.0265643 0.0258073 0.0285184 0.027458 0.0284336 0.0259686 0.0296298 0.0279984 0.0285184 0.027458 0.0298659 0.028168 0.0296298 0.0279984 0.0296965 0.0279486 0.0298659 0.028168 0.0291395 0.0273223 0.0296965 0.0279486 0.0283635 0.0265469 0.0291395 0.0273223 0.0283635 0.0257765 0.0265469 0.0260103 0.0283635 0.0291404 0.0257765 0.0275061 0.0291404 0.0295812 0.0275061 0.0279596 0.0300333 0.0284505 0.0295812 0.0279596 0.0300333 0.0297739 0.0284505 0.0282013 0.0297739 0.0292442 0.0282013 0.0276953 0.0292442 0.028352 0.0276953 0.02681 0.028352 0.0262837 0.02681 0.0262781 0.028352 0.0291672 0.0262837 0.0278343 0.0291672 0.0297732 0.0278343 0.0284477 0.0297732 0.0300502 0.0284477 0.0287609 0.0300502 0.0300039 0.0287609 0.0258696 0.0300039 0.0293145 0.0258696 0.0282797 0.0293145 0.0282025 0.0282797 0.0271311 0.0282025 0.0271249 0.0271311 0.0256315 0.0271249 0.0244195 0.0256315 0.024219 0.0272357 0.0257926 0.0271249 0.0244195 0.0281762 0.0263637 0.0272357 0.0257926 0.028228 0.0264659 0.0281762 0.0263637 -0.0281221 -0.0261478 -0.0283138 -0.0263975 -0.027575 -0.0255553 -0.0281221 -0.0261478 -0.0266859 -0.024645 -0.027575 -0.0255553 -0.0254253 -0.0234332 -0.0266859 -0.024645 -0.0229431 -0.0230542 -0.0254253 -0.0234332 -0.0229431 -0.0254253 -0.0249734 -0.0265282 -0.0249734 -0.0265282 -0.0257073 -0.0273274 -0.0265233 -0.0257073 -0.028244 -0.0273274 -0.0265233 -0.028244 -0.0266292 -0.0283136 -0.0266292 -0.0283136 -0.0264528 -0.0281241 -0.0264528 -0.0281241 -0.0258861 -0.0275348 -0.0258861 -0.0275348 -0.0249261 -0.0265613 -0.0249261 -0.0265613 -0.0236553 -0.0252396 -0.0236553 -0.0252396 -0.0220931 -0.0235749 -0.0252396 -0.0265593 -0.0235749 -0.0247977 -0.0265593 -0.0275051 -0.0247977 -0.0256718 -0.0275051 -0.0280859 -0.0256718 -0.0262101 -0.0280859 -0.0282937 -0.0262101 -0.0264141 -0.0282937 -0.0281891 -0.0264141 -0.0263232 -0.0276175 -0.0257897 -0.0281891 -0.0263232 -0.026807 -0.0250063 -0.0276175 -0.0257897 -0.026807 -0.0260248 -0.0250063 -0.0236936 -0.0260248 -0.0230446 -0.0236936 -0.022841 -0.0261988 -0.0250894 -0.0260248 -0.0230446 -0.027751 -0.0259823 -0.0261988 -0.0250894 -0.0283651 -0.0264982 -0.027751 -0.0259823 -0.0286857 -0.0296826 -0.0283651 -0.0264982 -0.0258394 -0.0280242 -0.0286857 -0.0296826 -0.0269895 -0.0253591 -0.0280242 -0.0296826 -0.0257285 -0.0240724 -0.0269895 -0.0253591 -0.0257285 -0.0243651 -0.0240724 -0.0221285 -0.0243651 -0.0208825 -0.0221285 -0.020708 -0.0243695 -0.0227805 -0.0243651 -0.0208825 -0.0243695 -0.0257646 -0.0227805 -0.0236401 -0.0257646 -0.0262916 -0.0236401 -0.0243041 -0.0263975 -0.0242933 -0.0262916 -0.0243041 0.028228 0.0282412 0.0264659 0.0264131 0.0275461 0.0257622 0.0282412 0.0264131 0.0265643 0.0248329 0.0275461 0.0257622 0.0265643 0.0258073 0.0248329 0.0235256 0.0228842 0.0227028 0.0258073 0.0235256 0.0248066 0.0228842 0.0259686 0.0258073 0.0256729 0.0248066 0.027458 0.0259686 0.0262126 0.0256729 0.0279984 0.027458 0.0263955 0.0262126 0.028168 0.0279984 0.0262068 0.0263955 0.0279486 0.028168 0.0256473 0.0262068 0.0273223 0.0279486 0.0249113 0.0256473 0.0265469 0.0273223 0.0249113 0.0265469 0.0235111 0.0260103 0.0235111 0.0260103 0.021987 0.0234167 0.0257765 0.0249571 0.0260103 0.0234167 0.0257765 0.0275061 0.0249571 0.0256803 0.0275061 0.0279596 0.0256803 0.0261265 0.0284505 0.0265583 0.0279596 0.0261265 0.0284505 0.0282013 0.0265583 0.026367 0.0282013 0.0276953 0.026367 0.0259111 0.0276953 0.02681 0.0259111 0.0250661 0.02681 0.0262781 0.0250661 0.0238196 0.0262781 0.0230497 0.0238196 0.0228249 0.0262837 0.0252182 0.0262781 0.0230497 0.0262837 0.0278343 0.0252182 0.0259674 0.0278343 0.0284477 0.0259674 0.0265199 0.0284477 0.0287609 0.0265199 0.0298086 0.0287609 0.0258696 0.0298086 0.0282797 0.0298086 0.0282797 0.0254197 0.0271311 0.0254197 0.0271311 0.0239224 0.0256315 0.0239224 0.0256315 0.0221255 0.024219 0.0221255 0.024219 0.020059 0.0215323 0.0244195 0.0226916 0.024219 0.0215323 0.0257926 0.0236233 0.0244195 0.0226916 0.0263637 0.024233 0.0257926 0.0236233 0.0264659 0.0243943 0.0263637 0.024233 -0.0261478 -0.0239765 -0.0263975 -0.0242933 -0.0255553 -0.0233291 -0.0261478 -0.0239765 -0.024645 -0.0224114 -0.0255553 -0.0233291 -0.0234332 -0.0212735 -0.024645 -0.0224114 -0.0230542 -0.0200175 -0.0234332 -0.0212735 -0.0230542 -0.0192428 -0.0200175 -0.019045 -0.0229431 -0.0217112 -0.0230542 -0.0192428 -0.0229431 -0.0249734 -0.0217112 -0.0227384 -0.0249734 -0.0257073 -0.0227384 -0.023477 -0.0265233 -0.0241384 -0.0257073 -0.023477 -0.0265233 -0.0266292 -0.0241384 -0.0242634 -0.0266292 -0.0264528 -0.0242634 -0.0240696 -0.0264528 -0.0258861 -0.0240696 -0.0235127 -0.0258861 -0.0249261 -0.0235127 -0.0226353 -0.0249261 -0.0236553 -0.0226353 -0.0214916 -0.0236553 -0.0220931 -0.0214916 -0.0200842 -0.0220931 -0.0192914 -0.0200842 -0.0192017 -0.0220931 -0.0235749 -0.0192914 -0.0216069 -0.0235749 -0.0247977 -0.0216069 -0.0227168 -0.0247977 -0.0256718 -0.0227168 -0.0234871 -0.0256718 -0.0262101 -0.0234871 -0.0239785 -0.0262101 -0.0264141 -0.0239785 -0.0241556 -0.0264141 -0.0263232 -0.0241556 -0.0240726 -0.0257897 -0.0236082 -0.0263232 -0.0240726 -0.0250063 -0.022882 -0.0257897 -0.0236082 -0.0250063 -0.0236936 -0.022882 -0.0216063 -0.0236936 -0.022841 -0.0216063 -0.0200566 -0.022841 -0.0193021 -0.0200566 -0.0190771 -0.0230446 -0.0218102 -0.022841 -0.0193021 -0.0250894 -0.0230047 -0.0230446 -0.0218102 -0.0259823 -0.0238004 -0.0250894 -0.0230047 -0.0264982 -0.0241786 -0.0259823 -0.0238004 -0.0296826 -0.0240404 -0.0264982 -0.0241786 -0.0253591 -0.0231304 -0.0296826 -0.0240404 -0.0240724 -0.0219158 -0.0253591 -0.0231304 -0.0240724 -0.0221285 -0.0219158 -0.0201146 -0.0221285 -0.020708 -0.0201146 -0.018215 -0.0172431 -0.0170493 -0.020708 -0.018215 -0.0191773 -0.0172431 -0.0208825 -0.020708 -0.0203333 -0.0191773 -0.0227805 -0.0208825 -0.0203333 -0.0227805 -0.0211603 -0.0236401 -0.0211603 -0.0236401 -0.02173 -0.0243041 -0.0216469 -0.02173 -0.0242933 -0.0243041 0.0264659 0.0264131 0.0243943 0.0242732 0.0257622 0.0236459 0.0264131 0.0242732 0.0248329 0.0227737 0.0257622 0.0236459 0.0248329 0.0235256 0.0227737 0.0215025 0.0227028 0.0201405 0.0235256 0.0215025 0.0193917 0.0191774 0.0227028 0.0201405 0.0216428 0.0193917 0.0228842 0.0227028 0.0227417 0.0216428 0.0248066 0.0228842 0.0235357 0.0227417 0.0256729 0.0248066 0.024053 0.0235357 0.0262126 0.0256729 0.0242419 0.024053 0.0263955 0.0262126 0.0240745 0.0242419 0.0262068 0.0263955 0.023574 0.0240745 0.0256473 0.0262068 0.0229131 0.023574 0.0249113 0.0256473 0.0229131 0.0249113 0.0216365 0.0235111 0.0216365 0.0235111 0.0202438 0.021987 0.0202438 0.021987 0.0183236 0.0199809 0.021987 0.0234167 0.0199809 0.0212778 0.0249571 0.0227333 0.0234167 0.0212778 0.0249571 0.0256803 0.0227333 0.023334 0.0256803 0.0261265 0.023334 0.0237253 0.0265583 0.0242594 0.0261265 0.0237253 0.0265583 0.026367 0.0242594 0.0240552 0.026367 0.0259111 0.0240552 0.0236602 0.0259111 0.0250661 0.0236602 0.0228566 0.0250661 0.0238196 0.0228566 0.0216656 0.0238196 0.0228249 0.0216656 0.0199991 0.0193027 0.0191943 0.0228249 0.0199991 0.0219278 0.0193027 0.0230497 0.0228249 0.0232747 0.0219278 0.0252182 0.0230497 0.0232747 0.0252182 0.0239327 0.0259674 0.0239327 0.0259674 0.0242887 0.0265199 0.0242887 0.0265199 0.0241232 0.0298086 0.0241232 0.0298086 0.02319 0.0254197 0.02319 0.0254197 0.0218183 0.0239224 0.0218183 0.0239224 0.0201387 0.0221255 0.0201387 0.0221255 0.0182048 0.020059 0.0182048 0.020059 0.0161906 0.0176873 0.020059 0.0215323 0.0176873 0.0190198 0.0226916 0.0201959 0.0215323 0.0190198 0.0236233 0.021191 0.0226916 0.0201959 0.024233 0.0218651 0.0236233 0.021191 0.0243943 0.0221209 0.024233 0.0218651 -0.0212875 -0.0216469 -0.0239765 -0.0242933 -0.0206796 -0.0212875 -0.0233291 -0.0239765 -0.0198906 -0.0206796 -0.0224114 -0.0233291 -0.0189876 -0.0198906 -0.0212735 -0.0224114 -0.0180161 -0.0189876 -0.0200175 -0.0212735 -0.0180161 -0.0200175 -0.0162653 -0.019045 -0.0162653 -0.019045 -0.0142424 -0.0163093 -0.0192428 -0.0180953 -0.019045 -0.0163093 -0.0217112 -0.0196452 -0.0192428 -0.0180953 -0.0217112 -0.0227384 -0.0196452 -0.0204114 -0.0227384 -0.023477 -0.0204114 -0.021058 -0.0241384 -0.0216105 -0.023477 -0.021058 -0.0241384 -0.0242634 -0.0216105 -0.0217409 -0.0242634 -0.0240696 -0.0217409 -0.0215185 -0.0240696 -0.0235127 -0.0215185 -0.0209453 -0.0235127 -0.0226353 -0.0209453 -0.0201212 -0.0226353 -0.0214916 -0.0201212 -0.0191493 -0.0214916 -0.0200842 -0.0191493 -0.0180767 -0.0200842 -0.0192017 -0.0180767 -0.0163428 -0.0192017 -0.0152992 -0.0163428 -0.0151265 -0.0192914 -0.0182032 -0.0192017 -0.0152992 -0.0192914 -0.0216069 -0.0182032 -0.0196019 -0.0216069 -0.0227168 -0.0196019 -0.0203906 -0.0227168 -0.0234871 -0.0203906 -0.0209889 -0.0234871 -0.0239785 -0.0209889 -0.0214188 -0.0239785 -0.0241556 -0.0214188 -0.0215667 -0.0241556 -0.0240726 -0.0215667 -0.0214921 -0.0236082 -0.0211253 -0.0240726 -0.0214921 -0.022882 -0.0204736 -0.0236082 -0.0211253 -0.022882 -0.0216063 -0.0204736 -0.0192771 -0.0216063 -0.0200566 -0.0192771 -0.0177546 -0.0200566 -0.0190771 -0.0177546 -0.0159619 -0.0190771 -0.0151346 -0.0159619 -0.0148915 -0.0193021 -0.0180327 -0.0190771 -0.0151346 -0.0218102 -0.0195591 -0.0193021 -0.0180327 -0.0230047 -0.0206092 -0.0218102 -0.0195591 -0.0238004 -0.0212704 -0.0230047 -0.0206092 -0.0241786 -0.0215534 -0.0238004 -0.0212704 -0.0240404 -0.0213252 -0.0241786 -0.0215534 -0.0231304 -0.0205032 -0.0240404 -0.0213252 -0.0219158 -0.0193072 -0.0231304 -0.0205032 -0.0219158 -0.0201146 -0.0193072 -0.0176739 -0.0201146 -0.018215 -0.0176739 -0.0159691 -0.0170493 -0.0142418 -0.018215 -0.0159691 -0.0139407 -0.0121012 -0.0170493 -0.0142418 -0.01554 -0.0139407 -0.0172431 -0.0170493 -0.016624 -0.01554 -0.0191773 -0.0172431 -0.0177391 -0.016624 -0.0203333 -0.0191773 -0.0177391 -0.0203333 -0.0185263 -0.0211603 -0.0185263 -0.0211603 -0.0189903 -0.02173 -0.0188388 -0.0189903 -0.0216469 -0.02173 0.0243943 0.0242732 0.0221209 0.0218554 0.0236459 0.0211913 0.0242732 0.0218554 0.0227737 0.02034 0.0236459 0.0211913 0.0227737 0.0215025 0.02034 0.0191482 0.0201405 0.0181217 0.0215025 0.0191482 0.0191774 0.0164818 0.0201405 0.0181217 0.0191774 0.0153116 0.0164818 0.0152252 0.0193917 0.0181674 0.0191774 0.0153116 0.0216428 0.0196635 0.0193917 0.0181674 0.0227417 0.0204284 0.0216428 0.0196635 0.0235357 0.0210236 0.0227417 0.0204284 0.024053 0.0214547 0.0235357 0.0210236 0.0242419 0.021589 0.024053 0.0214547 0.0240745 0.0213558 0.0242419 0.021589 0.023574 0.0207683 0.0240745 0.0213558 0.0229131 0.0200862 0.023574 0.0207683 0.0229131 0.0216365 0.0200862 0.0189822 0.0216365 0.0202438 0.0189822 0.0179564 0.0202438 0.0183236 0.0179564 0.0160826 0.0154243 0.0155585 0.0183236 0.0160826 0.0154243 0.0183236 0.018329 0.0199809 0.018329 0.0199809 0.0196423 0.0212778 0.020733 0.0196423 0.0227333 0.0212778 0.020733 0.0227333 0.0211476 0.023334 0.0211476 0.023334 0.0214481 0.0237253 0.0218947 0.0214481 0.0242594 0.0237253 0.0218947 0.0242594 0.0218181 0.0240552 0.0218181 0.0240552 0.0215373 0.0236602 0.0215373 0.0236602 0.0208489 0.0228566 0.0208489 0.0228566 0.0196618 0.0216656 0.0196618 0.0216656 0.0179533 0.0199991 0.0161589 0.0179533 0.0191943 0.0199991 0.0141187 0.0161589 0.0161895 0.0191943 0.0182486 0.0161895 0.0193027 0.0191943 0.019839 0.0182486 0.0219278 0.0193027 0.0210875 0.019839 0.0232747 0.0219278 0.0210875 0.0232747 0.0215672 0.0239327 0.0215672 0.0239327 0.0217848 0.0242887 0.0217848 0.0242887 0.0214796 0.0241232 0.0214796 0.0241232 0.0206118 0.02319 0.0206118 0.02319 0.0193359 0.0218183 0.0193359 0.0218183 0.0177811 0.0201387 0.0177811 0.0201387 0.0160184 0.0182048 0.0160184 0.0182048 0.0141293 0.0161906 0.0126344 0.0141293 0.0130631 0.0161906 0.0130631 0.0161906 0.0151638 0.0176873 0.0151638 0.0176873 0.016175 0.0190198 0.0173544 0.016175 0.0201959 0.0190198 0.0184667 0.0173544 0.021191 0.0201959 0.0192944 0.0184667 0.0218651 0.021191 0.0196172 0.0192944 0.0221209 0.0218651 -0.0183717 -0.0188388 -0.0212875 -0.0216469 -0.0177485 -0.0183717 -0.0206796 -0.0212875 -0.0170992 -0.0177485 -0.0198906 -0.0206796 -0.0164508 -0.0170992 -0.0189876 -0.0198906 -0.0145551 -0.0164508 -0.0180161 -0.0189876 -0.0145551 -0.0180161 -0.0143932 -0.0162653 -0.0143932 -0.0162653 -0.0121858 -0.0142424 -0.00962492 -0.0121858 -0.0118651 -0.0142424 -0.0118651 -0.0142424 -0.0141247 -0.0163093 -0.0160865 -0.0141247 -0.0180953 -0.0163093 -0.0158689 -0.0160865 -0.0196452 -0.0180953 -0.0158689 -0.0196452 -0.0179237 -0.0204114 -0.0179237 -0.0204114 -0.0184438 -0.021058 -0.0187739 -0.0184438 -0.0216105 -0.021058 -0.0187739 -0.0216105 -0.0190838 -0.0217409 -0.0190838 -0.0217409 -0.0188565 -0.0215185 -0.0188565 -0.0215185 -0.0182445 -0.0209453 -0.0182445 -0.0209453 -0.0174416 -0.0201212 -0.0174416 -0.0201212 -0.016637 -0.0191493 -0.016637 -0.0191493 -0.0146195 -0.0180767 -0.0146195 -0.0180767 -0.0145391 -0.0163428 -0.0145391 -0.0163428 -0.0122504 -0.0151265 -0.0122504 -0.0151265 -0.00984084 -0.0119563 -0.0152992 -0.0141055 -0.0151265 -0.0119563 -0.0182032 -0.0162277 -0.0152992 -0.0141055 -0.0182032 -0.0196019 -0.0162277 -0.0158436 -0.0196019 -0.0203906 -0.0158436 -0.0178267 -0.0203906 -0.0209889 -0.0178267 -0.0182307 -0.0209889 -0.0214188 -0.0182307 -0.0185936 -0.0214188 -0.0215667 -0.0185936 -0.0187003 -0.0215667 -0.0214921 -0.0187003 -0.0185928 -0.0211253 -0.0183885 -0.0214921 -0.0185928 -0.0204736 -0.0180388 -0.0211253 -0.0183885 -0.0204736 -0.0192771 -0.0180388 -0.0167426 -0.0192771 -0.0177546 -0.0167426 -0.0152263 -0.0177546 -0.0159619 -0.0152263 -0.0135019 -0.0159619 -0.0148915 -0.0135019 -0.0115438 -0.0148915 -0.0106652 -0.0115438 -0.0104447 -0.0151346 -0.0138966 -0.0148915 -0.0106652 -0.0180327 -0.015835 -0.0151346 -0.0138966 -0.0195591 -0.0173606 -0.0180327 -0.015835 -0.0206092 -0.0180393 -0.0195591 -0.0173606 -0.0212704 -0.0185074 -0.0206092 -0.0180393 -0.0215534 -0.0187171 -0.0212704 -0.0185074 -0.0213252 -0.01846 -0.0215534 -0.0187171 -0.0205032 -0.0176195 -0.0213252 -0.01846 -0.0193072 -0.0164335 -0.0205032 -0.0176195 -0.0193072 -0.0176739 -0.0164335 -0.0149215 -0.0176739 -0.0159691 -0.0149215 -0.0133292 -0.0142418 -0.0116344 -0.0159691 -0.0133292 -0.0121012 -0.010043 -0.0142418 -0.0116344 -0.0102815 -0.0112347 -0.0121012 -0.010043 -0.01554 -0.0102815 -0.0139407 -0.0121012 -0.016624 -0.0133977 -0.01554 -0.0102815 -0.0177391 -0.0147844 -0.016624 -0.0133977 -0.0177391 -0.0185263 -0.0147844 -0.0157837 -0.0185263 -0.0189903 -0.0157837 -0.0164387 -0.0188388 -0.0160784 -0.0189903 -0.0164387 0.0196172 0.0221209 0.0192841 0.0218554 0.018619 0.0192841 0.0211913 0.0218554 0.0178735 0.018619 0.02034 0.0211913 0.0178735 0.02034 0.0166955 0.0191482 0.0148172 0.0166955 0.0181217 0.0191482 0.0149225 0.0148172 0.0164818 0.0181217 0.0149225 0.0164818 0.0124375 0.0152252 0.0101017 0.0124375 0.0121059 0.0152252 0.0142297 0.0121059 0.0153116 0.0152252 0.016243 0.0142297 0.0181674 0.0153116 0.0159517 0.016243 0.0196635 0.0181674 0.0179347 0.0159517 0.0204284 0.0196635 0.0183456 0.0179347 0.0210236 0.0204284 0.0187449 0.0183456 0.0214547 0.0210236 0.018917 0.0187449 0.021589 0.0214547 0.0187217 0.018917 0.0213558 0.021589 0.0181962 0.0187217 0.0207683 0.0213558 0.0176389 0.0181962 0.0200862 0.0207683 0.0176389 0.0200862 0.0167634 0.0189822 0.0167634 0.0189822 0.0146913 0.0179564 0.0146913 0.0179564 0.0144183 0.0160826 0.0125276 0.0144183 0.0155585 0.0160826 0.0125276 0.0155585 0.00980997 0.0117628 0.0