# vtk DataFile Version 2.0
Exported by getfem++
ASCII
DATASET UNSTRUCTURED_GRID
POINTS 8432 float
 34.9826 -149.621 -145.686
 32.9826 -149.621 -145.686
 32.9826 -151.621 -145.686
 34.9826 -151.621 -145.686
 -23.7476 -151.882 -142.922
 -25.7476 -151.882 -142.922
 -25.7476 -153.882 -142.922
 -23.7476 -153.882 -142.922
 7.24346 -178.667 -121.078
 5.24346 -178.667 -121.078
 5.24346 -180.667 -121.078
 7.24346 -180.667 -121.078
 44.7161 -137.309 -128.672
 43.0461 -137.318 -129.187
 42.0147 -139.826 -129.195
 38.4277 -148.439 -139.06
 36.5893 -147.726 -137.923
 34.5563 -148.906 -140.76
 23.0451 -142.707 -133.414
 22.7288 -141.998 -136.215
 12.7614 -141.974 -133.135
 13.6936 -141.581 -133.743
 7.47563 -146.29 -133.39
 6.2896 -145.367 -134.182
 4.85136 -149.004 -133.792
 5.84692 -149.376 -133.453
 3.25693 -144.556 -131.332
 5.06227 -157.181 -126.846
 5.95668 -156.019 -127.875
 2.12149 -147.018 -131.047
 -3.0032 -144.514 -130.884
 -2.26944 -142.069 -131.444
 5.2999 -163.938 -120.892
 6.38254 -163.499 -121.48
 -11.0822 -142.386 -132.011
 -11.816 -144.831 -131.451
 5.0491 -173.06 -118.331
 6.10198 -174.607 -117.675
 -19.4052 -147.252 -134.541
 -19.8562 -148.527 -133.962
 5.2438 -175.436 -117.487
 6.77149 -177.076 -113.886
 -26.2144 -151.055 -135.492
 -26.1657 -151.932 -134.74
 5.91331 -177.904 -113.698
 6.08707 -175.25 -109.143
 6.94524 -174.422 -109.331
 -32.0702 -148.989 -132.954
 -32.1189 -148.113 -133.705
 6.68264 -171.367 -103.534
 7.54081 -170.538 -103.722
 -35.7214 -145.821 -130.207
 -35.6727 -146.698 -129.456
 6.3645 -165.658 -98.1679
 7.22267 -164.829 -98.3559
 -38.5078 -142.055 -127.369
 -38.5565 -141.178 -128.12
 5.28939 -158.127 -91.893
 6.14756 -157.298 -92.081
 -40.2538 -137.443 -124.658
 -40.3025 -136.566 -125.409
 6.25739 -148.044 -88.7781
 7.11557 -147.215 -88.966
 -37.4194 -135.018 -123.936
 -37.4681 -134.142 -124.687
 5.105 -137.669 -87.837
 5.96317 -136.84 -88.0249
 -35.6429 -132.5 -122.544
 -35.6916 -131.623 -123.295
 5.6317 -129.19 -88.724
 6.48987 -128.362 -88.912
 -33.4395 -129.519 -119.93
 -33.4882 -128.642 -120.682
 5.13047 -121.979 -90.5211
 5.98864 -121.15 -90.709
 5.58713 -113.991 -174.035
 6.0872 -114.092 -173.725
 5.16444 -114.295 -173.65
 5.84241 -117.9 -169.069
 7.45369 -113.981 -173.461
 3.83116 -114.484 -173.53
 11.3602 -114.263 -171.532
 8.70273 -117.781 -165.667
 2.63531 -115.375 -171.159
 1.88114 -115.48 -168.601
 5.98387 -122.44 -166.226
 -1.49422 -116.047 -167.842
 7.95983 -113.496 -174.042
 3.45517 -113.967 -174.26
 9.3289 -113.202 -173.749
 10.5775 -111.897 -174.196
 11.1104 -111.543 -174.098
 11.7744 -112.611 -172.617
 12.5961 -111.495 -172.609
 14.0514 -111.56 -170.186
 13.3263 -112.197 -165.734
 13.1978 -118.483 -165.196
 -2.4303 -109.26 -170.631
 -1.5088 -111.937 -172.509
 1.96396 -113.793 -174.181
 1.04935 -113.423 -174.082
 6.64586 -127.287 -159.987
 4.0514 -123.823 -164.363
 -5.00566 -111.301 -166.914
 -3.70291 -118.845 -162.783
 8.73564 -113.058 -174.241
 7.9817 -113.272 -174.391
 12.0262 -111.176 -173.497
 12.0038 -110.729 -173.954
 12.0899 -110.321 -174.295
 12.8592 -109.988 -173.904
 13.5486 -109.08 -174.332
 13.8543 -108.813 -173.807
 13.9241 -108.133 -173.749
 13.8466 -107.627 -173.342
 12.9843 -106.43 -171.09
 15.5426 -107.204 -168.448
 15.5684 -112.635 -163.318
 17.3764 -109.236 -164.227
 17.6526 -117.164 -162.03
 16.4742 -122.007 -159.272
 -9.77894 -104.925 -172.862
 -5.54282 -106.093 -173.311
 -0.426216 -112.716 -174.138
 -1.51962 -111.946 -174.26
 -1.62003 -111.86 -174.406
 -2.65289 -110.927 -174.041
 -3.14219 -110.353 -174.512
 -0.0728449 -112.824 -174.385
 0.314239 -113.077 -174.035
 -3.88248 -109.576 -174.506
 -4.40013 -108.793 -174.032
 -4.42084 -108.897 -174.494
 5.69242 -131.028 -150.904
 0.542203 -129.663 -151.938
 -0.384831 -125.362 -158.129
 12.5173 -128.712 -154.728
 -8.97832 -106.588 -165.579
 -7.77828 -110.154 -163.134
 -7.16164 -120.129 -159.268
 -12.1184 -112.895 -160.696
 13.5867 -106.688 -174.275
 13.4902 -103.773 -174.249
 13.1182 -104.712 -174.028
 13.4114 -106.359 -174.139
 13.1375 -105.623 -174.241
 18.4698 -105.555 -172.199
 16.8159 -104.241 -174.087
 15.1593 -103.38 -174.46
 14.1897 -103.286 -174.429
 19.0768 -113.305 -161.601
 22.4916 -107.3 -166.263
 20.0646 -119.54 -155.58
 16.8323 -125.665 -152.796
 20.1129 -122.428 -151.7
 -6.33764 -104.833 -174.33
 -8.20738 -103.992 -174.532
 -11.1195 -104.206 -168.581
 -9.41242 -103.591 -174.256
 -10.2346 -102.511 -174.147
 -10.588 -101.268 -173.995
 -11.4704 -100.12 -171.634
 -5.89528 -105.599 -174.163
 -4.84296 -107.231 -173.656
 -5.25375 -106.664 -174.012
 -5.46066 -106.318 -173.722
 -1.67331 -132.295 -144.972
 2.9235 -133.048 -143.134
 8.90127 -133.266 -143.269
 9.69889 -131.718 -149.764
 -5.61314 -128.149 -151.78
 -6.1641 -130.186 -149.821
 14.9688 -130.122 -148.421
 -14.6526 -102.944 -168.217
 -9.19791 -122.091 -154.483
 -10.7608 -116.96 -154.657
 -16.0036 -112.475 -160.821
 -17.863 -109.723 -164.394
 -16.4715 -113.56 -155.871
 17.3015 -104.377 -174.076
 17.92 -104.312 -174.272
 18.5584 -104.206 -174.071
 19.0009 -104.267 -173.576
 22.0253 -103.135 -171.158
 19.448 -104.107 -173.06
 26.0832 -111.95 -159.463
 27.0051 -109.953 -165.159
 23.5191 -115.824 -154.991
 26.4011 -115.179 -150.085
 20.5218 -125.026 -151.378
 26.5766 -124.684 -149.23
 28.6869 -118.983 -148.327
 -10.8161 -100.341 -173.387
 -17.6707 -95.3881 -170.115
 -10.7868 -98.668 -173.281
 -10.7203 -96.2445 -173.081
 -6.71111 -133.646 -146.684
 -4.94365 -132.582 -141.335
 1.82713 -137.83 -141.687
 10.3836 -135.546 -142.033
 14.0683 -130.799 -143.585
 -8.16748 -126.536 -148.928
 -8.86164 -132.751 -151.158
 20.3198 -128.243 -146.877
 -22.0562 -106.618 -165.349
 -22.9447 -100.937 -167.51
 -12.2149 -119.757 -151.495
 -18.704 -115.122 -152.48
 -20.7014 -108.322 -163.541
 -22.1101 -109.844 -154.361
 -19.6391 -109.721 -158.447
 18.0934 -104.156 -174.435
 28.1226 -104.052 -169.994
 19.348 -102.733 -174.33
 19.7152 -102.241 -174.071
 20.1428 -101.859 -173.736
 20.1892 -101.005 -174.128
 20.9782 -100.793 -173.484
 22.0703 -99.118 -173.325
 29.416 -108.01 -162.812
 27.1298 -114.564 -155.602
 32.6145 -109.102 -155.922
 34.361 -113.015 -150.061
 23.3019 -128.356 -152.396
 28.9489 -126.158 -150.542
 31.1821 -119.833 -148.577
 36.5311 -116.936 -148.447
 -10.5668 -99.1906 -174.287
 -15.971 -89.2992 -173.347
 -21.9458 -93.5196 -171.343
 -11.969 -91.4043 -172.791
 -10.5083 -98.501 -174.16
 -10.3119 -97.4135 -174.062
 -9.74783 -96.1533 -174.573
 -10.0779 -96.7793 -174.254
 -9.29537 -94.9698 -174.35
 -8.85569 -93.4923 -174.372
 -9.22553 -94.4899 -174.24
 -8.5733 -91.0613 -173.096
 -9.16451 -136.98 -154.491
 -8.4786 -137.177 -146.597
 -5.75601 -134.764 -142.106
 -3.6743 -140.209 -141.616
 -1.45695 -139.974 -142.482
 2.83652 -138.438 -143.185
 11.2231 -138.398 -142.869
 13.4276 -140.777 -142.179
 15.3446 -136.497 -143.188
 17.4022 -130.337 -143.522
 -12.4998 -121.466 -148.729
 -12.8774 -126.515 -148.32
 -10.4683 -135.728 -156.346
 -14.7546 -135.193 -158.82
 -14.9851 -129.854 -150.339
 20.7437 -129.966 -150.073
 19.185 -135.712 -147.823
 -26.0717 -102.622 -164.254
 -30.5568 -99.4001 -167.064
 -16.2861 -116.829 -145.476
 -21.061 -113.422 -149.024
 -27.7113 -107.996 -155.594
 -26.9084 -107.986 -150.66
 23.9656 -95.887 -171.761
 31.1365 -99.5374 -170.061
 26.7868 -95.9453 -170.868
 32.6914 -105.885 -165.26
 20.7684 -100.063 -173.9
 20.2439 -98.1021 -174.402
 20.2634 -99.1793 -174.462
 19.9333 -96.9856 -174.347
 36.6478 -106.408 -159.247
 36.4688 -107.033 -154.274
 40.1677 -111.897 -145.644
 40.0774 -108.803 -147.238
 19.5392 -134.721 -155.507
 25.6455 -128.866 -154.521
 18.7784 -132.991 -152.191
 34.309 -127.244 -156.15
 38.7921 -121.373 -150.801
 41.7813 -119.684 -148.4
 -31.9872 -89.4988 -169.349
 -30.1366 -85.6809 -170.139
 -20.6316 -79.184 -168.743
 -14.1288 -85.0706 -172.637
 -7.51343 -86.4363 -170.548
 -8.40796 -92.079 -173.87
 -7.42304 -90.6865 -174.032
 -7.5979 -91.1234 -174.434
 -6.88949 -89.862 -173.393
 -4.6681 -87.2585 -171.547
 -13.4293 -138.581 -157.654
 -9.63757 -139.871 -151.85
 -7.28707 -142.641 -149.32
 -4.31283 -140.092 -145.3
 -5.94758 -142.682 -143.685
 -5.9936 -144.969 -139.906
 -3.77022 -142.413 -140.393
 1.14983 -141.739 -146.452
 3.5646 -137.006 -148.945
 5.18133 -135.475 -147.036
 11.4584 -141.736 -148.103
 10.1042 -138.167 -146.658
 10.6597 -143.56 -143.472
 11.4317 -144.908 -142.482
 16.8995 -145.152 -142.435
 17.8058 -142.921 -142.712
 16.904 -138.557 -146.517
 18.5195 -141.419 -146.75
 -17.191 -125.749 -145.736
 -17.2212 -128.269 -147.449
 -19.5066 -140.725 -161.159
 -19.3361 -133.457 -158.856
 -16.4958 -144.303 -156.66
 -17.1047 -129.577 -152.143
 20.3443 -142.423 -148.363
 20.5589 -138.049 -152.03
 -39.9109 -100.627 -163.564
 -20.0207 -119.224 -144.186
 -23.9132 -114.972 -146.368
 -32.8928 -107.462 -156.289
 -32.6851 -106.917 -151.177
 -35.0609 -107.826 -147.801
 -30.8194 -109.702 -144.178
 18.2608 -93.8766 -174.378
 18.733 -94.4252 -174.257
 20.1567 -90.097 -172.965
 19.7192 -96.2816 -174.26
 19.4851 -95.7375 -174.225
 19.3579 -94.9808 -174.067
 41.3365 -98.146 -168.755
 31.6104 -92.8844 -172.312
 25.1895 -87.9793 -173.779
 41.7788 -105.357 -159.321
 44.5831 -105.832 -151.604
 48.513 -114.773 -145.576
 49.0582 -112.77 -144.453
 47.3871 -103.989 -146.229
 24.1131 -136.584 -159.838
 26.4463 -132.644 -161.002
 31.9905 -130.78 -160.416
 35.638 -130.383 -158.249
 42.7791 -126.292 -152.186
 47.1481 -126.008 -153.14
 46.8734 -120.943 -152.805
 49.8095 -118.672 -149.959
 -41.5791 -93.9943 -163.286
 -42.1793 -89.077 -159.491
 -28.666 -79.6812 -166.665
 -31.7153 -78.7466 -164.396
 -10.2564 -75.9368 -168.741
 -25.732 -73.6725 -163.035
 -13.6935 -73.4334 -165.16
 -6.39391 -78.9473 -169.632
 -2.20443 -82.2244 -166.948
 -6.35958 -89.3231 -173.53
 -5.94087 -88.8597 -174.189
 -4.59343 -86.8615 -174.305
 -5.31309 -87.9359 -173.706
 -3.69839 -86.0408 -173.697
 -0.794842 -83.8993 -172.723
 2.45474 -82.4313 -168.741
 -10.0722 -145.122 -152.041
 -9.52691 -149.071 -147.689
 -8.82052 -145.065 -147.35
 -10.4638 -143.354 -143.132
[...]
POINT_DATA 8432


SCALARS phi float 1
LOOKUP_TABLE default
 -0.00106032 -0.000908548 -0.000674351 -0.000746986 -1.05438e-05 -1.15375e-05 -1.68396e-05 -1.61021e-05 -5.12285e-05 -4.91951e-05 -5.17301e-05 -5.38375e-05 1.46031e-06 1.19023e-06 3.5069e-07 -4.67816e-06 -9.56145e-07 -5.9886e-06 2.78993e-07 1.13922e-06 -1.15133e-06 -1.0854e-06 -1.67254e-06 -7.91943e-07 -1.89433e-06 -2.34365e-06 -1.1953e-06 -6.20316e-06 -5.80337e-06 -1.85373e-06 -1.0721e-06 -7.96198e-07 -9.01899e-06 -8.98054e-06 -8.38624e-08 -2.02193e-08 -1.37607e-05 -1.5093e-05 1.95213e-06 2.12713e-06 -1.51465e-05 -1.63061e-05 2.09541e-06 2.64643e-06 -1.63396e-05 -1.41725e-05 -1.43962e-05 -3.60837e-07 -4.74177e-07 -1.11878e-05 -1.12182e-05 -2.96721e-07 -2.84613e-07 -8.0827e-06 -7.97029e-06 -1.40451e-08 4.3534e-08 -4.8013e-06 -4.79994e-06 3.208e-07 1.18827e-06 -2.62168e-06 -2.7092e-06 1.39182e-06 1.61672e-06 -1.06924e-06 -9.57529e-07 1.93202e-06 2.14729e-06 4.97361e-08 1.62308e-07 2.61329e-06 2.84154e-06 9.67133e-07 1.08803e-06 -0.000125405 -0.000128706 -0.000117975 -0.000130894 -0.000133816 -0.00012889 -0.000177173 -7.24779e-05 -0.000117349 -6.37553e-05 -0.000137898 -0.000108521 -0.000137694 -0.00015917 -0.000134325 -0.000138293 -0.000136327 -0.000145788 -0.000153189 -0.000198874 -0.000103883 -0.000179953 -5.38936e-05 -0.000120776 -0.000113726 -9.66898e-05 -9.43039e-05 -0.000105753 -8.1948e-05 -7.53762e-05 -0.000132196 -0.000134688 -0.000136776 -0.000134518 -0.000135334 -0.000147681 -0.000167268 -0.000157528 -0.000156539 -0.000152396 -6.88992e-05 -0.000117166 -0.000106958 -0.000102233 -0.000192514 -0.000156608 -0.000145374 -9.79225e-05 -0.000128908 -0.000118598 -0.000119433 -0.000159439 -0.000190248 -0.000101152 -0.000107866 -0.00019254 -0.000118573 -0.000108275 -3.47248e-05 -3.24179e-05 -5.43636e-05 -8.61073e-05 -5.57931e-05 -5.20264e-05 -6.62452e-05 -6.48342e-05 -0.000133408 -9.75e-05 -0.000103309 -0.000128162 -0.000113085 -0.000195084 -0.00012134 -0.00010993 -9.06148e-05 -0.000151064 -0.000142297 -0.000144313 -8.95532e-05 -8.76841e-05 -9.1756e-05 -8.60127e-05 -8.97776e-05 -0.000114284 -0.000126345 -0.000121496 -9.99436e-05 -0.000164926 1.24656e-05 -0.000133579 -0.000145532 -1.14158e-05 -8.73163e-06 -1.37144e-05 -4.08476e-05 -3.62092e-05 -2.81868e-05 -4.74948e-05 -9.64936e-05 -4.81778e-05 -3.19598e-05 -7.70225e-05 -9.73995e-05 -4.99624e-05 -0.000128862 -0.000139452 -0.000161708 -0.000192589 -0.000189971 -0.000187302 -0.000196116 -0.000325108 -0.000147153 -7.89611e-05 -0.000120787 -9.29597e-05 -0.000112061 -0.00011925 -9.93915e-05 -0.000118334 -8.59165e-05 -1.20328e-05 -1.16246e-06 -4.75718e-06 -1.18311e-05 -1.13282e-05 -1.80726e-05 -3.11816e-05 -2.23164e-05 -0.000109051 -0.000100097 -4.01637e-05 -5.46928e-05 -7.32697e-05 -4.01655e-05 -4.18671e-05 -0.00013622 -0.000353683 -0.000175302 -0.000208607 -0.000246835 -0.000392957 -0.000285292 -0.000226355 -0.000218548 -0.000231141 -0.000194315 -0.000198894 -0.000121539 -0.000106053 -0.000147665 -0.000194933 -0.000116352 -0.000184804 -0.000151745 -0.000132232 -0.000113449 -9.75406e-05 -7.91427e-05 -8.62041e-05 -7.32904e-05 -9.60962e-05 -7.47431e-05 -0.000114195 -2.35409e-05 -4.71917e-06 -3.02302e-06 1.04041e-06 5.64856e-07 -7.06398e-06 -9.53858e-06 1.11452e-06 -1.09691e-05 -8.76766e-06 -2.97548e-05 -3.13145e-05 -3.54855e-05 -4.05277e-05 -3.06254e-05 -7.44073e-05 -2.08915e-05 -7.04165e-05 -0.000120198 -1.45305e-05 -3.29756e-05 -5.59981e-05 -2.8296e-05 -0.000253177 -0.000339266 -0.000255492 -0.000345318 -0.000299571 -0.000182115 -0.000259971 -0.000151001 -0.00027618 -0.000173069 -0.000139397 -0.000161258 -9.1339e-05 -0.000142411 -8.08042e-05 -0.000225948 -0.00025668 -0.000189522 -0.000187772 -0.000232296 -0.000225567 -0.000211639 -0.000125756 -0.000103075 -0.00010752 -0.000104233 -0.000125095 -0.000121062 -1.7305e-05 -5.76038e-06 6.53039e-06 1.18753e-06 1.45435e-05 5.34704e-06 4.04919e-06 6.3065e-06 -2.5033e-05 -2.82323e-05 3.67008e-06 -1.76807e-05 2.15903e-05 2.54256e-05 3.71629e-05 2.146e-05 -1.13679e-05 1.42862e-05 -2.08121e-05 -2.16656e-05 -1.40463e-05 -4.61249e-05 4.69996e-06 -4.48661e-05 1.77412e-05 -2.02467e-05 -0.000126476 -1.96808e-05 -3.82515e-05 -7.40185e-05 -3.28864e-05 -4.50564e-05 -2.68339e-05 -0.000161296 -0.000182827 -0.000256998 -0.000152042 -0.000162138 -0.000198346 -0.00050347 -0.000424967 -0.00053307 -0.000391282 -0.000311926 -0.000214752 -0.000187099 -0.000198628 -8.33493e-05 -0.000170751 -0.000205125 -0.000149295 -0.000155956 -0.000230904 -0.000433166 -0.000365195 -0.000148283 -0.000146624 -0.000190908 -0.000200797 -0.000292716 -0.000229695 -0.000247274 -0.000272784 -0.000149081 -0.000127804 -0.000133039 -0.00020085 -0.000173671 -0.000174041 -0.00022157 -0.00022357 1.21397e-05 3.92255e-05 1.7488e-05 1.02496e-05 2.11007e-05 2.33512e-05 4.45573e-05 1.79376e-05 2.31845e-05 -1.53227e-05 -2.86078e-05 2.65794e-05 5.7041e-05 4.13331e-05 1.94911e-05 5.2709e-05 -2.03752e-05 -4.03899e-05 -3.51312e-05 -4.48676e-05 -1.45306e-05 9.86225e-06 2.7086e-05 -3.87399e-05 1.85046e-05 2.6371e-05 2.47178e-05 4.52168e-05 4.75776e-06 -9.12765e-05 -0.000106322 -0.00013188 -2.91223e-05 -7.4761e-05 -3.08742e-05 -2.44463e-05 -0.000121368 -0.000121881 -0.000122197 -0.000201766 -0.000264622 -0.000416814 -0.000726224 -0.000694184 -0.000683293 -0.000368088 -0.000563255 -0.000756312 -0.000512892 -0.00034525 -0.00045696 -0.000293624 -0.000543308 -0.000249028 -0.000133941 -5.66748e-05 -5.67631e-06 -0.000225779 -0.000272399 -0.000293068 -0.000295111 -0.000182744 -0.000314354 -0.000231972 -0.000173274 -9.17857e-05 -0.000141683 -0.000213683 -0.000247401 -0.0003022 -0.000281625 -0.000298359 -0.000212369 -0.00019746 -0.000192094 -0.000188995 -0.000166393 -0.000235373 -0.00023913 -0.000287212 -0.000218415 -0.000224143 -0.000259028 -0.000255283 -0.000265113 2.57656e-05 6.23648e-05 8.40209e-05 1.58095e-05 1.9386e-05 2.59042e-05 5.20881e-05 2.90186e-05 3.00651e-05 2.15745e-05 4.04951e-05 8.53811e-05 0.000119391 4.33267e-05 4.62485e-05 0.000111747 1.31456e-05 -5.95887e-05 -3.13324e-05 -3.5245e-05 -6.22286e-05 -2.20338e-07 1.68252e-05 5.49057e-05 4.43744e-05 -1.50008e-05 5.31873e-05 5.71939e-05 0.000106934 5.20982e-05 -0.0001212 -0.000104911 -0.000136953 -4.23462e-05 -3.09496e-05 -2.423e-05 -3.74742e-05 -0.000119237 -0.000295202 -0.000255237 -0.000135829 -0.0001595 -0.000230626 -0.000260475 -0.000330983 -0.000358701 -0.000188119 -0.000213679 -0.000359246 -0.000534478 -0.000643521 -0.000763248 -0.000646462 -0.000764922 -0.000820634 -0.000924856 -0.000544763 -0.000642189 -0.000575749 -0.000926826 -0.000967678 -0.00033509 -0.000667235 -5.05349e-05 -1.30413e-05 1.58367e-05 4.90443e-05 -0.000120175 -0.000164368 -0.000373363 -0.000522128 -0.00017765 -0.000149717 -0.000126592 -0.000167661 -0.000235769 -0.000199797 -0.000258062 -0.000302329 -0.000193787 -0.000314461 -0.00029166 -0.000268226 -0.000214374 -0.000257411 -0.000255304 -0.00018707 -0.000214018 4.3572e-05 3.47523e-05 1.24589e-05 1.97326e-05 5.91386e-05 3.67437e-05 6.95624e-05 6.34666e-05 9.02386e-05 8.58453e-05 0.000111652 0.00015322 0.000145862 0.000179947 0.00011782 7.84502e-05 7.12259e-05 0.000177012 0.000116681 -3.74614e-05 -3.12911e-05 -3.14267e-05 -4.47829e-05 -2.94415e-05 5.31097e-06 -1.52786e-07 4.39934e-05 6.44742e-05 5.84817e-05 -9.45972e-06 0.000101732 0.000124221 0.000105218 -0.000120955 -0.00010008 -0.000145689 -0.000120168 -6.77411e-05 -6.50706e-05 -6.65702e-05 -3.98098e-05 -6.46723e-05 -6.01726e-05 -0.000282661 -0.000374983 -0.000434186 -0.000389008 -0.000242261 -0.000274689 -0.000271514 -0.000486559 -0.000444053 -0.000535671 -0.000456548 -0.00059585 -0.000859583 -0.000709676 -0.00050836 -0.000404543 -0.000600673 -0.000569382 -0.0008802 -0.000705048 -0.000930987 -0.00072726 -0.000935746 -0.000721607 -0.000276021 -3.89109e-05 -3.05001e-05 2.0971e-05 0.000147325 -9.24304e-05 -0.000191438 -0.00028763 -0.000374042 -0.000182741 -0.000212542 -0.000168784 -0.000277451 -0.000199701 -0.000218344 -0.000181415 -0.000319715 -0.000269171 -0.000214017 -0.0001941 -0.000233713 -0.00033174 -0.000178433 -0.000177993 -0.000218807 9.06209e-05 3.29067e-05 1.96409e-05 3.19837e-05 9.48837e-05 9.10506e-05 7.9853e-05 8.41268e-05 0.000162672 0.000182939 0.000104767 0.000141402 0.000127168 0.00022197 0.000258156 0.000270423 0.000197057 0.000208432 0.000199209 0.000244427 0.000224306 7.89816e-05 0.000325686 0.00015558 5.22489e-05 -2.98865e-05 -4.66302e-05 -3.96286e-05 1.25874e-05 3.9634e-07 9.0124e-06 3.76049e-05 6.0055e-05 7.40257e-05 9.01343e-05 -2.03319e-05 3.52814e-06 -5.66287e-06 0.000251661 -4.96234e-05 -0.000107181 -4.90854e-05 -0.000138223 -7.86897e-05 -6.96783e-05 -5.01529e-05 -7.15546e-05 -0.000100354 -0.00011869 -3.88676e-05 -5.49364e-05 -0.000376881 -0.00037929 -0.000551743 -0.000436041 -0.000606652 -0.000701937 -0.000533059 -0.000623793 -0.000404029 -0.000180614 -0.00035544 -0.000458851 -0.000498313 -0.000305147 -0.000744344 -0.000534974 -0.000528732 -0.000682278 -0.000692343 -0.000612804 -0.000241453 -0.000492777 4.34562e-05 -1.60268e-06 8.75242e-05 0.000130393 -5.66934e-05 -7.82767e-05 -0.000197868 -0.000138174 -0.000147024 -0.000234551 -0.00018197 -8.66241e-05 -0.000133901 -0.000225343 -0.000131469 -8.83367e-05 -0.000268096 -0.000257669 -0.000334877 -0.00024141 -0.000288886 9.42078e-05 6.93286e-05 1.9047e-05 2.24288e-05 5.5894e-05 3.35189e-05 0.000120287 0.000148198 8.0565e-05 8.23077e-05 0.000102774 8.33047e-05 0.000181366 0.000154594 0.000284585 0.00020171 0.00018499 0.000207208 0.000259043 0.000279722 0.000224445 0.000368873 0.00026705 0.000481999 0.000332426 0.000284381 5.19783e-05 0.000403766 0.000214633 0.000103311 8.46981e-05 0.000182091 -4.87222e-05 -6.27073e-05 3.34343e-05 2.59079e-05 5.00581e-05 9.26255e-05 9.65854e-05 -2.79757e-05 2.24674e-05 9.51186e-06 -7.66473e-06 0.000250091 -8.06384e-05 -1.08756e-05 -7.16601e-05 -4.91714e-05 -6.07033e-05 -6.55924e-05 -4.10798e-05 -7.35849e-05 -6.6573e-05 -8.69563e-05 -8.16903e-05 -0.000390988 -0.000377708 -0.0003427 -0.000565993 -0.000415773 -0.000154685 -0.000243016 -0.000292888 -0.00034808 -0.000487464 -0.000672586 -0.000424304 -0.000582675 -0.000645095 -0.000339992 -0.000437335 -0.000199978 -0.000510513 -0.000530602 -0.000275146 0.000127244 6.71614e-05 -1.17256e-05 -6.80869e-05 -0.000133106 -0.000172018 -0.000207166 -8.8265e-05 -0.000176009 -0.00011614 -0.000160874 -0.00017562 -5.24086e-05 -0.000100431 -3.98416e-05 -0.000315046 -0.000166164 -0.00030233 7.41584e-05 2.92936e-05 5.81827e-05 8.1271e-05 3.88532e-05 3.57402e-05 0.000133207 0.000106204 0.000212291 0.00011396 7.4717e-05 0.000107575 8.39004e-05 0.000105348 0.000116118 0.000231943 0.000204457 0.000320116 0.000263555 0.000182149 0.000273632 0.00035947 0.000417625 0.000568253 0.000538024 0.000607355 0.000424282 0.000292981 0.000278916 0.000250188 0.000167908 7.40868e-05 6.20535e-05 0.000138037 -5.08902e-05 2.6957e-05 7.71782e-05 5.30022e-05 7.00222e-05 -2.84942e-05 -3.2491e-05 2.80555e-05 3.21379e-05 1.05806e-05 -9.46777e-06 -0.000105373 -0.000139457 -3.48818e-05 -4.17926e-05 -3.17366e-05 -5.61196e-05 -4.60706e-05 -3.41222e-05 -5.16643e-05 -5.68874e-05 -8.28959e-05 -0.000298429 -0.000456314 -0.000502627 -0.000377488 -1.59845e-05 -0.000107789 -0.000130314 -0.000173844 -0.000270526 -0.000246885 -0.000524907 -0.000506541 -0.000360146 -0.000446422 -0.000210216 -0.000249196 -0.000390932 -0.000458971 -0.000354784 -0.000376746 -0.00025682 -0.000357249 0.000101665 8.82808e-05 3.82116e-05 3.08597e-07 -0.000125862 -9.43917e-05 -0.000172145 -0.00013258 -0.000167737 -0.000219147 -9.88181e-05 -0.00022778 -0.000164369 -8.72532e-05 -5.78257e-05 -9.75709e-05 -0.000223333 -0.000227746 -0.000303049 -0.0001295 0.000103099 0.000107714 4.628e-05 2.90634e-05 0.000227462 0.00019097 0.000255996 0.000108929 6.69567e-05 0.000152885 8.40827e-05 0.00011089 0.000100725 0.000165425 0.000263487 6.87397e-05 8.56418e-05 0.000253777 0.000304191 0.000374596 0.000392097 0.000490176 0.000342472 0.000593136 0.000343224 0.000500821 0.000533928 0.000419326 0.000248406 0.000231191 0.000268337 0.000158074 0.000136431 0.000150364 0.000108235 0.00011007 3.10483e-05 -8.58495e-06 -2.74844e-05 1.57159e-05 7.90568e-06 -1.57999e-05 -4.30944e-05 -2.11409e-05 -1.18002e-05 -1.51952e-05 -3.30255e-05 -1.50073e-05 -2.1913e-05 -4.47246e-05 -2.0923e-05 -4.42703e-05 -4.48735e-05 -6.52303e-05 -3.58728e-05 -0.000180977 -0.000220957 1.53768e-05 -4.23605e-05 -0.000117406 -0.000146406 -9.46075e-05 -0.000138348 -0.000216769 -0.000192837 -0.000180168 -0.000260852 -0.000401938 -0.000278804 -0.000330934 -0.000242467 -0.000180638 -0.00028256 -0.00024557 -0.000247114 -8.51897e-05 -6.52061e-05 -7.14631e-05 -5.68318e-05 -9.31666e-05 -0.000178985 -8.27214e-05 -0.000145404 -0.000204008 -8.38734e-05 -7.83746e-05 -5.12311e-05 -6.00599e-05 -0.000242531 -0.000166574 -0.000170271 -0.000269243 -0.000198977 0.000117669 8.79578e-05 4.92249e-05 3.61329e-05 2.83944e-05 2.70905e-05 2.95867e-05 0.000274948 0.000316343 0.000122235 0.000192732 0.00020787 0.000153767 0.000112157 0.000192675 0.000237798 0.00019995 0.000308639 4.14469e-05 4.83555e-05 0.000288883 0.000127464 0.000306678 0.000189717 0.00022151 0.000330483 0.000572918 0.000212152 0.000316248 0.000275837 0.000218998 0.000189185 0.000139132 9.03176e-05 6.45262e-05 5.78553e-05 5.09728e-05 3.72474e-05 1.28563e-05 1.69612e-05 1.79182e-06 -9.20103e-06 7.87219e-06 -6.17259e-06 -1.54088e-05 -9.26967e-06 -1.35503e-05 -1.68905e-05 -1.25044e-05 -3.97321e-05 -1.35688e-05 -5.32978e-05 -1.99737e-05 -1.90135e-05 1.21589e-05 -3.80993e-05 -1.97999e-05 -6.41177e-05 -0.00010069 -0.00018656 -0.000187778 -0.000159682 -0.000255644 -0.000428813 -0.000201316 -0.000246761 -0.000333449 -0.000344866 -0.000247091 -0.000179175 -8.72319e-05 -9.32053e-05 -7.88953e-05 -0.000125897 -0.000139098 -4.84652e-05 -5.06489e-05 -2.68365e-05 -6.58609e-05 -3.98956e-05 -0.00012938 -7.6943e-05 -0.000144386 -0.000113491 -4.19119e-05 -3.58725e-05 -5.79153e-05 -0.000355479 -0.000184472 -0.000136309 -0.000164178 -9.38849e-05 8.91852e-05 0.000110275 6.24283e-05 3.17046e-05 1.57397e-05 1.39016e-05 1.76964e-05 0.000142937 0.000231162 0.000149933 0.000101779 0.000278217 0.000210883 9.94913e-05 0.000100866 0.000168115 0.000291737 0.000239449 0.00013364 0.000175165 0.000219567 0.000113987 0.0001498 3.31192e-05 0.000134067 4.7741e-05 4.11884e-05 1.30543e-06 9.85543e-06 1.77136e-05 3.2572e-05 2.30507e-05 6.63383e-06 1.23285e-05 1.2145e-06 3.00025e-06 -2.88013e-07 -7.17706e-06 -5.42889e-06 -5.33015e-06 -5.29029e-06 -5.05287e-06 -8.14262e-06 -3.67531e-06 -1.84871e-05 -2.33786e-05 -1.18116e-05 -1.73614e-05 -1.08115e-05 -4.82424e-05 -3.27112e-05 -2.03605e-06 -1.0641e-05 -3.5413e-05 -4.92343e-05 -0.000107036 -7.13036e-05 -0.000121294 -9.63533e-05 -0.00018766 -0.000237282 -0.000209374 -0.00019928 -0.000129023 -0.000130177 -0.000107425 -7.51874e-05 -5.65684e-05 -8.5142e-05 -5.06087e-05 -5.86714e-05 -8.39442e-05 -4.39786e-05 -1.90201e-05 -4.58387e-05 -2.38386e-05 -1.89256e-05 -1.93463e-05 -8.02458e-05 -8.79579e-05 -4.35964e-05 -3.90794e-05 -2.64573e-05 -8.70918e-06 -5.49885e-06 -1.76843e-05 -4.39774e-05 -0.000271078 -3.16993e-05 -9.43678e-05 -0.00016297 -2.78424e-05 -2.97041e-05 5.77504e-05 5.67576e-05 2.55804e-05 8.05812e-06 9.97127e-06 6.2843e-06 5.71324e-06 6.20155e-06 8.74654e-05 4.00244e-05 0.000160729 7.10374e-05 4.68594e-05 6.01552e-05 5.38448e-05 0.000130099 6.26046e-05 7.8496e-05 2.13757e-05 5.27218e-06 -7.77267e-06 -1.7261e-05 -2.0308e-05 -2.361e-05 -2.38272e-05 -2.55106e-05 -1.6537e-05 5.39742e-06 1.78996e-05 5.92255e-06 1.34428e-05 2.50936e-06 9.37273e-07 -1.25407e-06 -3.43898e-06 -3.2656e-06 -2.61675e-06 -3.90729e-06 -1.05786e-06 -6.83346e-06 -1.848e-06 -2.09309e-06 -4.01693e-06 -4.85811e-07 -3.69595e-06 -1.21764e-05 1.01285e-05 -1.13271e-05 4.46453e-06 -3.98554e-05 -2.44457e-05 -4.18292e-05 -6.8154e-05 -4.04466e-05 -6.18778e-05 -4.48939e-05 -0.000170685 -0.000197663 -0.00016833 -9.49358e-05 -8.81123e-05 -6.69162e-05 -6.51936e-05 -2.4719e-05 -4.35602e-05 -2.80438e-05 -4.50518e-05 -2.8677e-05 -1.29731e-05 -3.0726e-05 -2.46669e-05 -3.07339e-05 -2.0266e-05 -1.06599e-05 -9.22309e-06 -3.46233e-06 -5.39594e-06 -4.99245e-06 -3.20406e-05 -1.08118e-05 -4.04154e-06 -1.28103e-05 -1.43076e-05 -1.03607e-05 -5.27533e-06 -1.61228e-06 -8.15106e-07 -6.23253e-05 -3.4884e-06 -2.08676e-05 -4.41236e-08 2.62669e-05 1.68319e-05 4.84035e-07 4.97259e-06 7.61622e-06 4.5011e-07 2.85882e-06 3.77461e-06 2.21127e-05 7.42346e-05 4.86498e-05 2.52737e-05 2.56682e-05 2.7219e-05 4.69979e-05 1.99773e-05 5.1767e-06 3.1393e-05 1.43867e-07 -2.18141e-05 -1.08632e-05 -2.40791e-05 -1.96155e-05 -2.63261e-05 -1.77691e-05 -1.59667e-05 -2.20017e-05 -1.89469e-05 4.65418e-06 -9.30434e-06 1.4689e-05 1.93198e-05 1.8561e-06 -7.86869e-07 1.29901e-06 7.97221e-07 -1.85242e-06 -7.8995e-07 7.74837e-07 -6.45524e-07 1.07407e-06 1.03407e-06 3.52354e-08 2.54147e-06 1.09778e-06 2.34158e-06 1.41278e-05 -7.39631e-06 1.00663e-05 3.07213e-06 -1.94372e-05 -2.30877e-05 -2.11748e-05 -9.44886e-05 -4.15744e-05 -3.87859e-05 -2.78733e-05 -4.36989e-05 -3.32203e-05 -1.63593e-05 -6.16879e-06 -1.21391e-05 -1.29539e-05 -1.08752e-05 -9.62712e-07 -2.46782e-07 -1.67904e-05 -9.93621e-06 1.40231e-06 3.14387e-06 1.26093e-06 2.88539e-06 1.41746e-06 -5.23355e-06 8.35779e-07 2.61037e-06 1.02721e-06 2.49302e-06 3.36094e-06 1.74757e-06 2.72522e-06 -9.70885e-06 2.35901e-06 6.07152e-06 1.44828e-05 5.90009e-06 2.02276e-07 -1.62304e-06 -5.10436e-06 1.80503e-06 -3.29001e-07 1.75739e-06 6.46702e-07 1.43209e-05 1.33724e-05 7.04474e-06 3.03052e-06 7.83634e-06 4.63783e-06 4.82412e-06 2.64364e-06 5.4697e-07 1.29552e-05 -1.4035e-05 -1.26748e-05 -1.9033e-05 -1.14989e-05 -1.51481e-05 -1.44613e-05 -1.29257e-05 8.21834e-06 -1.14148e-06 -5.7339e-06 1.31661e-05 1.42066e-06 1.00163e-06 1.27915e-06 1.49908e-06 1.36674e-06 9.68889e-07 1.33533e-06 2.54455e-06 2.40649e-06 2.40655e-06 3.90432e-06 3.72746e-06 3.76612e-06 4.27544e-06 1.04344e-05 -2.40402e-06 6.60605e-06 4.93462e-06 2.48389e-06 -1.33116e-05 -1.43746e-05 -5.23974e-06 -3.0076e-06 -1.41498e-05 -2.05762e-06 -5.14185e-06 8.97556e-08 1.41011e-06 9.77475e-07 3.66401e-06 5.47754e-06 5.82554e-06 -3.55128e-06 4.9633e-06 4.04818e-06 4.29357e-06 6.08979e-06 4.25184e-06 3.9134e-06 5.30922e-06 4.87373e-06 4.49514e-06 2.83062e-06 4.09836e-06 5.08256e-06 7.89199e-06 2.11324e-06 -1.1085e-06 -3.95234e-06 -4.60792e-06 -1.90045e-06 -7.91449e-07 5.37976e-07 -4.16793e-08 3.26691e-06 1.4086e-06 -1.04932e-06 -2.6697e-06 -3.77755e-06 -5.43712e-06 -3.43115e-06 -4.99943e-06 -8.17816e-06 -1.05152e-05 -8.8433e-06 -8.4574e-06 -8.24596e-06 -8.18627e-06 1.03612e-05 3.79511e-06 8.29588e-07 -3.09155e-06 -3.90924e-06 1.43776e-06 1.2588e-06 2.08092e-06 2.47042e-06 2.814e-06 4.08434e-06 3.16543e-06 4.29448e-06 5.04263e-06 5.95569e-06 -1.58461e-06 5.0275e-06 4.598e-06 4.18331e-06 2.55015e-06 3.85944e-06 1.4539e-06 1.27794e-06 4.27985e-06 3.51694e-06 2.28954e-06 6.14831e-06 5.47684e-06 6.72772e-06 7.22115e-06 4.8341e-06 7.92311e-06 6.19102e-06 6.33396e-06 6.96306e-06 7.67429e-06 5.43118e-06 5.17814e-06 3.50545e-06 6.98536e-06 5.73594e-06 -3.08829e-06 -5.00904e-06 -4.3367e-06 -3.15186e-06 -4.72696e-06 -2.52644e-06 -1.61669e-06 -8.02092e-07 8.95699e-07 -4.00365e-06 -4.35636e-06 -6.43162e-06 -7.39271e-06 -5.32496e-06 -5.89844e-06 -9.17641e-06 -8.22062e-06 -7.25542e-06 -5.33038e-06 -7.59351e-06 -5.88017e-06 2.1395e-06 -2.19792e-06 -2.66106e-07 -3.84345e-06 1.66161e-06 3.52146e-07 1.00066e-06 2.01195e-06 2.84206e-06 3.57048e-06 1.47977e-06 3.00858e-06 4.30027e-06 5.1418e-06 5.68898e-06 2.79597e-06 2.58671e-06 4.60629e-06 2.62147e-06 3.7281e-06 3.74798e-06 3.49105e-06 3.69935e-06 4.62902e-06 5.82515e-06 3.5318e-06 5.84089e-06 8.27862e-06 6.74024e-06 6.68112e-06 6.04568e-06 4.19226e-06 6.73006e-06 4.61346e-06 6.25628e-06 6.03641e-06 7.80567e-06 4.36859e-06 4.77882e-06 7.18668e-06 -4.36759e-06 -4.44978e-06 -2.76203e-06 -7.40715e-07 -1.07652e-07 -5.14797e-06 -7.1832e-06 -4.95489e-06 -2.96569e-06 -4.53537e-06 -4.23882e-06 -4.62689e-06 -4.19666e-06 8.13258e-07 -2.14338e-06 1.73229e-06 3.65921e-08 6.21909e-07 7.37844e-07 2.97944e-06 3.01688e-06 2.26597e-06 4.15737e-06 3.70431e-06 4.62312e-06 4.60256e-06 4.55972e-07 1.27296e-06 1.92927e-06 3.10995e-