# vtk DataFile Version 2.0
Exported by getfem++
ASCII
DATASET UNSTRUCTURED_GRID
POINTS 8432 float
 34.9826 -149.621 -145.686
 32.9826 -149.621 -145.686
 32.9826 -151.621 -145.686
 34.9826 -151.621 -145.686
 -23.7476 -151.882 -142.922
 -25.7476 -151.882 -142.922
 -25.7476 -153.882 -142.922
 -23.7476 -153.882 -142.922
 7.24346 -178.667 -121.078
 5.24346 -178.667 -121.078
 5.24346 -180.667 -121.078
 7.24346 -180.667 -121.078
 44.7161 -137.309 -128.672
 43.0461 -137.318 -129.187
 42.0147 -139.826 -129.195
 38.4277 -148.439 -139.06
 36.5893 -147.726 -137.923
 34.5563 -148.906 -140.76
 23.0451 -142.707 -133.414
 22.7288 -141.998 -136.215
 12.7614 -141.974 -133.135
 13.6936 -141.581 -133.743
 7.47563 -146.29 -133.39
 6.2896 -145.367 -134.182
 4.85136 -149.004 -133.792
 5.84692 -149.376 -133.453
 3.25693 -144.556 -131.332
 5.06227 -157.181 -126.846
 5.95668 -156.019 -127.875
 2.12149 -147.018 -131.047
 -3.0032 -144.514 -130.884
 -2.26944 -142.069 -131.444
 5.2999 -163.938 -120.892
 6.38254 -163.499 -121.48
 -11.0822 -142.386 -132.011
 -11.816 -144.831 -131.451
 5.0491 -173.06 -118.331
 6.10198 -174.607 -117.675
 -19.4052 -147.252 -134.541
 -19.8562 -148.527 -133.962
 5.2438 -175.436 -117.487
 6.77149 -177.076 -113.886
 -26.2144 -151.055 -135.492
 -26.1657 -151.932 -134.74
 5.91331 -177.904 -113.698
 6.08707 -175.25 -109.143
 6.94524 -174.422 -109.331
 -32.0702 -148.989 -132.954
 -32.1189 -148.113 -133.705
 6.68264 -171.367 -103.534
 7.54081 -170.538 -103.722
 -35.7214 -145.821 -130.207
 -35.6727 -146.698 -129.456
 6.3645 -165.658 -98.1679
 7.22267 -164.829 -98.3559
 -38.5078 -142.055 -127.369
 -38.5565 -141.178 -128.12
 5.28939 -158.127 -91.893
 6.14756 -157.298 -92.081
 -40.2538 -137.443 -124.658
 -40.3025 -136.566 -125.409
 6.25739 -148.044 -88.7781
 7.11557 -147.215 -88.966
 -37.4194 -135.018 -123.936
 -37.4681 -134.142 -124.687
 5.105 -137.669 -87.837
 5.96317 -136.84 -88.0249
 -35.6429 -132.5 -122.544
 -35.6916 -131.623 -123.295
 5.6317 -129.19 -88.724
 6.48987 -128.362 -88.912
 -33.4395 -129.519 -119.93
 -33.4882 -128.642 -120.682
 5.13047 -121.979 -90.5211
 5.98864 -121.15 -90.709
 5.58713 -113.991 -174.035
 6.0872 -114.092 -173.725
 5.16444 -114.295 -173.65
 5.84241 -117.9 -169.069
 7.45369 -113.981 -173.461
 3.83116 -114.484 -173.53
 11.3602 -114.263 -171.532
 8.70273 -117.781 -165.667
 2.63531 -115.375 -171.159
 1.88114 -115.48 -168.601
 5.98387 -122.44 -166.226
 -1.49422 -116.047 -167.842
 7.95983 -113.496 -174.042
 3.45517 -113.967 -174.26
 9.3289 -113.202 -173.749
 10.5775 -111.897 -174.196
 11.1104 -111.543 -174.098
 11.7744 -112.611 -172.617
 12.5961 -111.495 -172.609
 14.0514 -111.56 -170.186
 13.3263 -112.197 -165.734
 13.1978 -118.483 -165.196
 -2.4303 -109.26 -170.631
 -1.5088 -111.937 -172.509
 1.96396 -113.793 -174.181
 1.04935 -113.423 -174.082
 6.64586 -127.287 -159.987
 4.0514 -123.823 -164.363
 -5.00566 -111.301 -166.914
 -3.70291 -118.845 -162.783
 8.73564 -113.058 -174.241
 7.9817 -113.272 -174.391
 12.0262 -111.176 -173.497
 12.0038 -110.729 -173.954
 12.0899 -110.321 -174.295
 12.8592 -109.988 -173.904
 13.5486 -109.08 -174.332
 13.8543 -108.813 -173.807
 13.9241 -108.133 -173.749
 13.8466 -107.627 -173.342
 12.9843 -106.43 -171.09
 15.5426 -107.204 -168.448
 15.5684 -112.635 -163.318
 17.3764 -109.236 -164.227
 17.6526 -117.164 -162.03
 16.4742 -122.007 -159.272
 -9.77894 -104.925 -172.862
 -5.54282 -106.093 -173.311
 -0.426216 -112.716 -174.138
 -1.51962 -111.946 -174.26
 -1.62003 -111.86 -174.406
 -2.65289 -110.927 -174.041
 -3.14219 -110.353 -174.512
 -0.0728449 -112.824 -174.385
 0.314239 -113.077 -174.035
 -3.88248 -109.576 -174.506
 -4.40013 -108.793 -174.032
 -4.42084 -108.897 -174.494
 5.69242 -131.028 -150.904
 0.542203 -129.663 -151.938
 -0.384831 -125.362 -158.129
 12.5173 -128.712 -154.728
 -8.97832 -106.588 -165.579
 -7.77828 -110.154 -163.134
 -7.16164 -120.129 -159.268
 -12.1184 -112.895 -160.696
 13.5867 -106.688 -174.275
 13.4902 -103.773 -174.249
 13.1182 -104.712 -174.028
 13.4114 -106.359 -174.139
 13.1375 -105.623 -174.241
 18.4698 -105.555 -172.199
 16.8159 -104.241 -174.087
 15.1593 -103.38 -174.46
 14.1897 -103.286 -174.429
 19.0768 -113.305 -161.601
 22.4916 -107.3 -166.263
 20.0646 -119.54 -155.58
 16.8323 -125.665 -152.796
 20.1129 -122.428 -151.7
 -6.33764 -104.833 -174.33
 -8.20738 -103.992 -174.532
 -11.1195 -104.206 -168.581
 -9.41242 -103.591 -174.256
 -10.2346 -102.511 -174.147
 -10.588 -101.268 -173.995
 -11.4704 -100.12 -171.634
 -5.89528 -105.599 -174.163
 -4.84296 -107.231 -173.656
 -5.25375 -106.664 -174.012
 -5.46066 -106.318 -173.722
 -1.67331 -132.295 -144.972
 2.9235 -133.048 -143.134
 8.90127 -133.266 -143.269
 9.69889 -131.718 -149.764
 -5.61314 -128.149 -151.78
 -6.1641 -130.186 -149.821
 14.9688 -130.122 -148.421
 -14.6526 -102.944 -168.217
 -9.19791 -122.091 -154.483
 -10.7608 -116.96 -154.657
 -16.0036 -112.475 -160.821
 -17.863 -109.723 -164.394
 -16.4715 -113.56 -155.871
 17.3015 -104.377 -174.076
 17.92 -104.312 -174.272
 18.5584 -104.206 -174.071
 19.0009 -104.267 -173.576
 22.0253 -103.135 -171.158
 19.448 -104.107 -173.06
 26.0832 -111.95 -159.463
 27.0051 -109.953 -165.159
 23.5191 -115.824 -154.991
 26.4011 -115.179 -150.085
 20.5218 -125.026 -151.378
 26.5766 -124.684 -149.23
 28.6869 -118.983 -148.327
 -10.8161 -100.341 -173.387
 -17.6707 -95.3881 -170.115
 -10.7868 -98.668 -173.281
 -10.7203 -96.2445 -173.081
 -6.71111 -133.646 -146.684
 -4.94365 -132.582 -141.335
 1.82713 -137.83 -141.687
 10.3836 -135.546 -142.033
 14.0683 -130.799 -143.585
 -8.16748 -126.536 -148.928
 -8.86164 -132.751 -151.158
 20.3198 -128.243 -146.877
 -22.0562 -106.618 -165.349
 -22.9447 -100.937 -167.51
 -12.2149 -119.757 -151.495
 -18.704 -115.122 -152.48
 -20.7014 -108.322 -163.541
 -22.1101 -109.844 -154.361
 -19.6391 -109.721 -158.447
 18.0934 -104.156 -174.435
 28.1226 -104.052 -169.994
 19.348 -102.733 -174.33
 19.7152 -102.241 -174.071
 20.1428 -101.859 -173.736
 20.1892 -101.005 -174.128
 20.9782 -100.793 -173.484
 22.0703 -99.118 -173.325
 29.416 -108.01 -162.812
 27.1298 -114.564 -155.602
 32.6145 -109.102 -155.922
 34.361 -113.015 -150.061
 23.3019 -128.356 -152.396
 28.9489 -126.158 -150.542
 31.1821 -119.833 -148.577
 36.5311 -116.936 -148.447
 -10.5668 -99.1906 -174.287
 -15.971 -89.2992 -173.347
 -21.9458 -93.5196 -171.343
 -11.969 -91.4043 -172.791
 -10.5083 -98.501 -174.16
 -10.3119 -97.4135 -174.062
 -9.74783 -96.1533 -174.573
 -10.0779 -96.7793 -174.254
 -9.29537 -94.9698 -174.35
 -8.85569 -93.4923 -174.372
 -9.22553 -94.4899 -174.24
 -8.5733 -91.0613 -173.096
 -9.16451 -136.98 -154.491
 -8.4786 -137.177 -146.597
 -5.75601 -134.764 -142.106
 -3.6743 -140.209 -141.616
 -1.45695 -139.974 -142.482
 2.83652 -138.438 -143.185
 11.2231 -138.398 -142.869
 13.4276 -140.777 -142.179
 15.3446 -136.497 -143.188
 17.4022 -130.337 -143.522
 -12.4998 -121.466 -148.729
 -12.8774 -126.515 -148.32
 -10.4683 -135.728 -156.346
 -14.7546 -135.193 -158.82
 -14.9851 -129.854 -150.339
 20.7437 -129.966 -150.073
 19.185 -135.712 -147.823
 -26.0717 -102.622 -164.254
 -30.5568 -99.4001 -167.064
 -16.2861 -116.829 -145.476
 -21.061 -113.422 -149.024
 -27.7113 -107.996 -155.594
 -26.9084 -107.986 -150.66
 23.9656 -95.887 -171.761
 31.1365 -99.5374 -170.061
 26.7868 -95.9453 -170.868
 32.6914 -105.885 -165.26
 20.7684 -100.063 -173.9
 20.2439 -98.1021 -174.402
 20.2634 -99.1793 -174.462
 19.9333 -96.9856 -174.347
 36.6478 -106.408 -159.247
 36.4688 -107.033 -154.274
 40.1677 -111.897 -145.644
 40.0774 -108.803 -147.238
 19.5392 -134.721 -155.507
 25.6455 -128.866 -154.521
 18.7784 -132.991 -152.191
 34.309 -127.244 -156.15
 38.7921 -121.373 -150.801
 41.7813 -119.684 -148.4
 -31.9872 -89.4988 -169.349
 -30.1366 -85.6809 -170.139
 -20.6316 -79.184 -168.743
 -14.1288 -85.0706 -172.637
 -7.51343 -86.4363 -170.548
 -8.40796 -92.079 -173.87
 -7.42304 -90.6865 -174.032
 -7.5979 -91.1234 -174.434
 -6.88949 -89.862 -173.393
 -4.6681 -87.2585 -171.547
 -13.4293 -138.581 -157.654
 -9.63757 -139.871 -151.85
 -7.28707 -142.641 -149.32
 -4.31283 -140.092 -145.3
 -5.94758 -142.682 -143.685
 -5.9936 -144.969 -139.906
 -3.77022 -142.413 -140.393
 1.14983 -141.739 -146.452
 3.5646 -137.006 -148.945
 5.18133 -135.475 -147.036
 11.4584 -141.736 -148.103
 10.1042 -138.167 -146.658
 10.6597 -143.56 -143.472
 11.4317 -144.908 -142.482
 16.8995 -145.152 -142.435
 17.8058 -142.921 -142.712
 16.904 -138.557 -146.517
 18.5195 -141.419 -146.75
 -17.191 -125.749 -145.736
 -17.2212 -128.269 -147.449
 -19.5066 -140.725 -161.159
 -19.3361 -133.457 -158.856
 -16.4958 -144.303 -156.66
 -17.1047 -129.577 -152.143
 20.3443 -142.423 -148.363
 20.5589 -138.049 -152.03
 -39.9109 -100.627 -163.564
 -20.0207 -119.224 -144.186
 -23.9132 -114.972 -146.368
 -32.8928 -107.462 -156.289
 -32.6851 -106.917 -151.177
 -35.0609 -107.826 -147.801
 -30.8194 -109.702 -144.178
 18.2608 -93.8766 -174.378
 18.733 -94.4252 -174.257
 20.1567 -90.097 -172.965
 19.7192 -96.2816 -174.26
 19.4851 -95.7375 -174.225
 19.3579 -94.9808 -174.067
 41.3365 -98.146 -168.755
 31.6104 -92.8844 -172.312
 25.1895 -87.9793 -173.779
 41.7788 -105.357 -159.321
 44.5831 -105.832 -151.604
 48.513 -114.773 -145.576
 49.0582 -112.77 -144.453
 47.3871 -103.989 -146.229
 24.1131 -136.584 -159.838
 26.4463 -132.644 -161.002
 31.9905 -130.78 -160.416
 35.638 -130.383 -158.249
 42.7791 -126.292 -152.186
 47.1481 -126.008 -153.14
 46.8734 -120.943 -152.805
 49.8095 -118.672 -149.959
 -41.5791 -93.9943 -163.286
 -42.1793 -89.077 -159.491
 -28.666 -79.6812 -166.665
 -31.7153 -78.7466 -164.396
 -10.2564 -75.9368 -168.741
 -25.732 -73.6725 -163.035
 -13.6935 -73.4334 -165.16
 -6.39391 -78.9473 -169.632
 -2.20443 -82.2244 -166.948
 -6.35958 -89.3231 -173.53
 -5.94087 -88.8597 -174.189
 -4.59343 -86.8615 -174.305
 -5.31309 -87.9359 -173.706
 -3.69839 -86.0408 -173.697
 -0.794842 -83.8993 -172.723
 2.45474 -82.4313 -168.741
 -10.0722 -145.122 -152.041
 -9.52691 -149.071 -147.689
 -8.82052 -145.065 -147.35
 -10.4638 -143.354 -143.132
[...]
POINT_DATA 8432


SCALARS phi float 1
LOOKUP_TABLE default
 -6.04657e-05 -5.53514e-05 -7.7768e-05 -8.23508e-05 -1.32216e-05 -1.53806e-05 -2.18372e-05 -1.9645e-05 -8.48825e-05 -6.66173e-05 -8.44893e-05 -8.96416e-05 1.99248e-06 1.44365e-06 -1.47216e-06 -1.34912e-05 -7.10578e-06 -1.39632e-05 -3.91767e-07 2.13079e-06 -2.7046e-07 7.35075e-08 -1.49063e-06 2.71424e-07 -1.39446e-06 -2.47223e-06 -3.51764e-07 -1.30076e-05 -1.19057e-05 -1.82639e-06 8.57724e-08 1.8614e-06 -2.20327e-05 -2.21151e-05 2.16246e-06 1.35038e-06 -3.30516e-05 -3.67716e-05 2.91201e-06 2.93907e-06 -3.65029e-05 -4.15567e-05 1.71225e-06 2.64788e-06 -4.12123e-05 -3.84787e-05 -3.93885e-05 -1.37436e-06 -1.64423e-06 -3.36396e-05 -3.39203e-05 -9.00836e-07 -8.52737e-07 -2.67166e-05 -2.64852e-05 -1.16548e-07 -7.76066e-08 -1.79492e-05 -1.7985e-05 7.9208e-07 9.27317e-07 -1.06769e-05 -1.10446e-05 1.15454e-06 1.31458e-06 -3.99795e-06 -3.59113e-06 1.70507e-06 1.90265e-06 1.01904e-06 1.63405e-06 2.4352e-06 2.6734e-06 4.90077e-06 5.25394e-06 5.9599e-05 6.55532e-05 4.64533e-05 4.07225e-05 5.91076e-05 5.13947e-05 4.86148e-05 1.88169e-05 3.97485e-05 1.69854e-05 4.63196e-05 3.03517e-05 5.89368e-05 8.59632e-05 5.90949e-05 5.61115e-05 5.0483e-05 4.74984e-05 4.66969e-05 3.38932e-05 1.32323e-05 3.51324e-05 6.70319e-06 2.60797e-05 4.25206e-05 2.89987e-05 4.56068e-05 4.15792e-05 1.25622e-05 2.56293e-05 5.94069e-05 5.57425e-05 4.75613e-05 5.05925e-05 5.44846e-05 5.49017e-05 6.99603e-05 5.2721e-05 5.06341e-05 4.33809e-05 1.18577e-05 1.30131e-05 1.02624e-05 8.00765e-06 1.31671e-05 1.93839e-05 -8.06935e-06 7.24846e-06 3.6163e-05 3.27235e-05 3.42988e-05 5.009e-05 7.38805e-05 2.60598e-05 3.03228e-05 6.84881e-05 1.37018e-05 1.2204e-05 5.10229e-05 4.37056e-05 3.33765e-05 4.49206e-05 1.55837e-06 6.83805e-06 2.51632e-05 1.16505e-05 4.51753e-05 4.72592e-05 3.9646e-05 4.79441e-05 4.86316e-05 6.99516e-06 5.42145e-07 3.47138e-05 3.51744e-05 4.28966e-06 -2.80886e-06 -2.89073e-06 2.01245e-05 8.53696e-07 -3.58474e-07 -1.29903e-05 -7.1277e-06 -1.31224e-05 -2.0756e-05 -2.60644e-05 -2.36271e-05 1.8826e-05 -7.78722e-06 1.0981e-05 1.28341e-05 3.82529e-05 2.93532e-05 3.75631e-05 5.85325e-05 3.70196e-05 3.77044e-05 4.43975e-05 -1.36434e-05 2.3108e-05 1.1069e-05 9.25446e-06 -5.14337e-07 9.77629e-06 -6.30325e-06 -1.65299e-05 -1.83851e-05 -1.45712e-05 -3.29986e-05 -1.40187e-05 -3.43726e-05 -5.63384e-05 -1.78467e-05 -1.81885e-05 9.41873e-06 -1.53768e-05 -3.03595e-05 -2.88189e-05 -3.88069e-05 -3.56447e-05 -3.70092e-05 3.56688e-05 7.74084e-06 2.65763e-05 3.70119e-05 2.19163e-05 1.50536e-05 4.01925e-05 1.03657e-05 -1.58235e-05 -2.82633e-05 1.64666e-05 1.03351e-05 -4.41818e-06 2.23395e-06 2.43604e-06 -2.25067e-05 -0.000107955 -4.72418e-05 -5.24078e-05 -5.82079e-05 -8.12326e-05 -7.33438e-05 -9.33302e-05 -5.80289e-05 -5.21594e-05 -7.75792e-05 -9.69614e-05 5.2749e-06 -2.35403e-05 -4.8952e-05 -0.00010402 -3.54144e-05 -0.000123508 -7.85007e-05 -7.75719e-05 -3.73212e-05 -3.80739e-05 -3.9112e-05 -3.77692e-05 -3.62757e-05 -5.79791e-05 -3.92893e-05 -7.00385e-05 5.75802e-05 2.45255e-05 1.81476e-05 1.87992e-05 5.1754e-05 3.34231e-05 4.85979e-05 2.84474e-05 4.69857e-05 1.28975e-05 1.35298e-05 1.7161e-05 5.34674e-05 4.30802e-05 1.69065e-05 2.50484e-05 4.37235e-05 -1.66171e-05 -5.26171e-05 7.19182e-06 6.01935e-06 -4.81865e-06 1.06706e-07 -0.000135835 -0.000159533 -0.000130198 -0.000129721 -7.81306e-05 -8.27192e-05 -8.2509e-05 -8.37291e-05 -0.000139891 -0.000100066 -9.8319e-05 -0.000113525 6.07859e-05 -8.44408e-06 5.46719e-05 -7.7849e-05 -0.000142927 -0.000125549 -0.000139183 -0.000192306 -0.000217499 -0.000178762 -0.000110276 -5.97656e-05 -7.30357e-05 -7.07998e-05 -9.26191e-05 -0.000109145 4.84802e-05 4.52544e-05 7.52786e-05 7.458e-05 6.09703e-05 1.68647e-05 1.94631e-05 8.77759e-05 7.31825e-05 6.6131e-05 0.000120498 5.87909e-05 8.01268e-05 8.61607e-05 0.000108063 7.75093e-05 9.19651e-05 0.000104603 7.98922e-06 8.79745e-06 5.32745e-05 2.81226e-05 4.0917e-05 2.01717e-05 0.000101727 5.84751e-05 -7.09254e-05 3.37045e-06 4.65965e-06 -1.69923e-05 -3.13947e-06 -1.09901e-05 4.62054e-07 -0.000102044 -0.000110318 -0.000177714 -8.93495e-05 -9.68062e-05 -0.000116277 -0.000368266 -0.000284051 -0.000403409 -0.000269963 -0.000272555 -0.000195664 -0.000176075 -0.000210816 3.82739e-05 7.87325e-07 -4.10531e-05 -5.23287e-05 -9.7999e-05 -0.000167447 -0.000329728 -0.000323416 -0.000109617 -0.000126523 -0.000179275 -0.000190497 -0.000305497 -0.000235498 -0.000262846 -0.000281044 -0.000152962 -9.73745e-05 -0.000104979 -0.000166985 -0.000138989 -0.000161996 -0.000225182 -0.000230538 6.75122e-05 9.43753e-05 5.4131e-05 2.36988e-05 4.81398e-05 6.67897e-05 0.000105766 5.65376e-05 0.000101065 7.77971e-05 8.19879e-05 6.05416e-05 0.000126571 8.51009e-05 4.52887e-05 9.49712e-05 4.65115e-06 3.91666e-06 1.37311e-06 1.32498e-05 4.33155e-05 6.05855e-05 7.79579e-05 2.30649e-05 4.39856e-05 8.87728e-05 0.000124937 9.69287e-05 8.47611e-05 -4.74498e-05 -7.38469e-05 -0.000103327 5.26678e-08 -3.79375e-05 -1.20532e-05 -3.0254e-06 -9.0776e-05 -9.45451e-05 -0.000101086 -0.00017288 -0.000235398 -0.000416939 -0.000716587 -0.000653028 -0.000752434 -0.000330243 -0.000543305 -0.000871566 -0.000507063 -0.000368442 -0.000502296 -0.000338863 -0.000734541 -0.000308223 1.03675e-05 5.17921e-05 9.49769e-05 -7.28734e-05 -0.000136372 -0.000186316 -0.00020873 -0.000154696 -0.000288095 -0.000238077 -0.000167266 -8.48857e-05 -0.000136634 -0.000228517 -0.0002685 -0.000337379 -0.000310883 -0.000326269 -0.000227809 -0.000220078 -0.00018081 -0.000188295 -0.00016188 -0.000235635 -0.000243584 -0.000288699 -0.000224849 -0.000231737 -0.000265276 -0.000258929 -0.000270969 5.51027e-05 0.000129402 0.00012702 3.02124e-05 2.9879e-05 3.96155e-05 7.99758e-05 5.57884e-05 6.08586e-05 4.58832e-05 8.26783e-05 0.000128732 0.00017629 6.85651e-05 7.20928e-05 0.000164215 1.68479e-05 -1.14132e-06 -1.71768e-06 7.3188e-06 3.02746e-06 3.41701e-05 4.2311e-05 9.24431e-05 8.91079e-05 3.70616e-05 8.25648e-05 0.000133606 0.000187609 0.000130289 -0.000101691 -8.42808e-05 -0.000127651 -3.46029e-05 -1.71034e-05 -5.97717e-06 -1.41878e-05 -0.000101376 -0.000257222 -0.000237805 -0.000112646 -0.000130506 -0.000187137 -0.000205334 -0.000260445 -0.000300194 -0.000193233 -0.000221672 -0.000391491 -0.000612691 -0.000804209 -0.000927959 -0.000743613 -0.000982321 -0.00103361 -0.00122615 -0.000615919 -0.000760616 -0.000745038 -0.00128731 -0.00139977 -0.000517085 -0.000888611 9.3097e-06 3.74035e-05 0.000120584 0.000152696 -4.19157e-06 -8.70172e-05 -0.000290972 -0.000500034 -0.000184536 -0.000163487 -0.000126012 -0.000174997 -0.000272225 -0.000240467 -0.000291228 -0.000353872 -0.00023177 -0.000378994 -0.000340226 -0.000276145 -0.000243314 -0.00025838 -0.000252708 -0.000183967 -0.000208266 6.17606e-05 5.08095e-05 1.72701e-05 2.85812e-05 8.07232e-05 5.12955e-05 0.000108517 0.000113692 0.000136274 0.000152975 0.000153215 0.000191511 0.00021042 0.000227781 0.000174342 0.000109877 9.92804e-05 0.000251769 0.000169427 -5.58714e-06 -5.33023e-06 8.41998e-06 4.27873e-06 -2.82391e-06 2.71289e-05 3.34261e-05 9.03775e-05 0.000102402 8.56863e-05 2.36236e-05 0.000168182 0.000222739 0.000189082 -0.00011444 -0.000104611 -0.000155865 -0.000135139 -5.28366e-05 -5.79997e-05 -6.40829e-05 -2.43847e-05 -1.6981e-05 -2.71298e-05 -0.000266776 -0.00029367 -0.000341737 -0.000436727 -0.000231721 -0.000272402 -0.000258215 -0.000600211 -0.000557354 -0.000682552 -0.000618847 -0.00080848 -0.00120949 -0.00095604 -0.000537095 -0.00047727 -0.000769293 -0.000813107 -0.00119904 -0.00102362 -0.00141604 -0.00112797 -0.00140811 -0.00113641 -0.000445285 7.16313e-05 6.33334e-05 8.80927e-05 0.000254761 1.08481e-05 -9.69921e-05 -0.000202305 -0.000336182 -0.000206086 -0.000246554 -0.000187703 -0.000337503 -0.000242828 -0.000283081 -0.000224039 -0.000395946 -0.000338508 -0.000265889 -0.000241213 -0.000233266 -0.000383047 -0.000175374 -0.000173751 -0.000212471 0.000122834 4.40134e-05 2.61978e-05 4.24028e-05 0.000116593 0.000112398 0.00010729 0.000128303 0.00020417 0.000239105 0.000129278 0.000176116 0.000149945 0.00025735 0.000348714 0.000330552 0.000251685 0.000309694 0.000282443 0.000347722 0.000325753 0.000119306 0.000486117 0.0002494 9.1695e-05 -3.98403e-06 -1.08922e-05 1.5025e-05 4.98298e-05 3.74557e-05 4.97615e-05 7.96803e-05 9.62479e-05 0.000114168 0.000127458 1.54272e-05 3.40539e-05 2.20596e-05 0.00038013 -5.5678e-05 -0.000137455 -6.20889e-05 -0.00017168 -5.06206e-05 -5.5526e-05 -4.91168e-05 -8.14565e-05 -0.000105124 -0.000140759 -2.02958e-05 -2.06185e-05 -0.000451534 -0.000494571 -0.000748346 -0.000592988 -0.000868784 -0.00100158 -0.000753036 -0.000947774 -0.000578625 -0.000119328 -0.000405943 -0.000602785 -0.000713129 -0.000490487 -0.00114121 -0.000912607 -0.000887012 -0.00111802 -0.00104553 -0.0009797 -0.000398197 -0.000839192 0.000165216 0.000165611 0.00020947 0.000256074 -1.08336e-05 1.0096e-05 -0.000111687 -8.69906e-06 -0.000184257 -0.000297301 -0.000243065 -0.000120076 -0.000182778 -0.000298979 -0.000178083 -0.000124661 -0.00035474 -0.000339161 -0.000417337 -0.000316504 -0.000372083 0.000129139 9.29471e-05 2.44796e-05 2.89841e-05 7.75151e-05 4.75643e-05 0.000142585 0.000166592 9.25459e-05 0.000103147 0.000117693 0.000111313 0.000214835 0.000180886 0.000325215 0.000239616 0.000225257 0.000238682 0.000365994 0.000339693 0.000273831 0.000470117 0.000352888 0.000709232 0.000499273 0.000449578 8.53931e-05 0.000641929 0.000432779 0.00021648 0.00018329 0.000358953 -5.11123e-07 -2.18951e-05 6.77724e-05 6.38778e-05 8.27078e-05 0.000135076 0.000139743 8.11737e-06 5.21137e-05 4.6555e-05 1.10995e-05 0.000382261 -0.000103446 -1.471e-05 -9.50252e-05 -2.55492e-05 -4.48736e-05 -5.81337e-05 -4.1926e-05 -8.65958e-05 -0.000100741 -0.00011374 -0.000129643 -0.000528136 -0.000538284 -0.000479965 -0.000827315 -0.000619406 -0.000144428 -0.000267984 -0.000446006 -0.000648916 -0.000982522 -0.00122845 -0.000855726 -0.00100927 -0.00128403 -0.000607349 -0.00068713 -0.000329172 -0.000856993 -0.000956144 -0.00053743 0.000268507 0.000234487 0.000188301 7.08113e-05 -0.000209679 -0.000249936 -0.000295672 -0.000118798 -0.000249703 -0.000179869 -0.000237181 -0.000233307 -6.79365e-05 -0.000133104 -5.13237e-05 -0.000426573 -0.000223579 -0.00041395 0.000106587 4.27144e-05 8.82977e-05 0.000114681 6.36442e-05 6.15847e-05 0.000149048 0.000117043 0.000233853 0.00015522 9.18728e-05 0.000126941 0.000102903 0.000116179 0.000134905 0.000261096 0.000230442 0.00036825 0.000297845 0.00021478 0.000332189 0.000446188 0.00053631 0.000716967 0.000729182 0.000778778 0.000804311 0.000662545 0.000474187 0.000503209 0.000429739 0.000183672 0.000155342 0.000347393 -1.71699e-05 4.9586e-05 0.000120498 9.62425e-05 0.000117211 -6.10617e-06 -8.5803e-06 6.56018e-05 6.57742e-05 4.31759e-05 1.47853e-05 -0.000151606 -0.000195594 -2.01494e-05 -3.72279e-05 -4.05044e-05 -7.27769e-05 -7.70661e-05 -7.15231e-05 -0.000116529 -0.000102372 -0.00016125 -0.000412397 -0.000673944 -0.000764548 -0.000536783 4.67217e-05 -9.22549e-05 -0.000202948 -0.00040336 -0.000719404 -0.000654014 -0.00117197 -0.00102048 -0.00102167 -0.00104388 -0.000338074 -0.000406815 -0.000699566 -0.00082087 -0.000769674 -0.000771998 -0.000591059 -0.000876434 0.000274305 0.000323577 0.000177392 0.000102767 -0.000203695 -0.000177057 -0.000279793 -0.000241665 -0.000223087 -0.000301143 -0.000171277 -0.000344435 -0.000297562 -0.000139424 -0.000117538 -0.000130305 -0.000301075 -0.000313569 -0.000408086 -0.000183185 0.00016627 0.000160504 8.83046e-05 5.55856e-05 0.000253465 0.00021065 0.000285041 0.000159674 8.80919e-05 0.000187374 0.00010172 0.000149202 0.000134854 0.000185897 0.000318625 7.28657e-05 9.29339e-05 0.000285307 0.000352308 0.000456998 0.000526081 0.000692487 0.000465834 0.000777772 0.000560815 0.000804773 0.000749973 0.000917465 0.000681278 0.000681274 0.000645572 0.000617783 0.000568951 0.000463835 0.000469959 0.000444001 6.65526e-05 9.83354e-06 -1.48986e-05 3.57121e-05 3.2213e-05 -4.8526e-06 -5.04449e-05 -2.67907e-05 -1.97152e-05 -3.22766e-05 -5.82215e-05 -3.63787e-05 -6.06048e-05 -9.60568e-05 -7.48088e-05 -0.000121531 -0.000114386 -0.000149939 -0.000112585 -0.000266946 -0.000342279 0.000226222 4.02395e-05 -0.000126409 -0.000325868 -0.000318889 -0.000444804 -0.0007361 -0.000546318 -0.000481798 -0.000404081 -0.000650238 -0.000549619 -0.000548047 -0.000493269 -0.000619792 -0.000703029 -0.000741498 -0.000785136 -0.000198706 -0.000202475 -0.000166212 -0.000175595 -0.000188326 -0.0002672 -0.000186212 -0.000303722 -0.00033313 -0.000271493 -0.000249343 -0.000110348 -0.000165876 -0.000341601 -0.000264497 -0.000262077 -0.000383315 -0.000290247 0.00018405 0.000176966 0.000123892 0.000125958 6.95013e-05 6.27004e-05 7.58347e-05 0.000308708 0.000356495 0.000180941 0.000259798 0.000274342 0.000197485 0.000183464 0.000273358 0.000270416 0.000288589 0.000369487 4.14159e-05 4.89332e-05 0.000332837 0.000143916 0.000408561 0.000240777 0.000360635 0.000538984 0.00085725 0.000704811 0.000849608 0.000592949 0.000815403 0.000746202 0.000674567 0.000565613 0.000566611 0.000340709 0.000424044 0.000325285 4.10578e-05 5.39451e-05 1.35119e-05 -3.63778e-06 3.67056e-05 -4.16457e-06 -2.67266e-05 -2.47744e-05 -4.39395e-05 -5.85326e-05 -6.61031e-05 -0.000141547 -7.10077e-05 -0.000164897 -0.000100138 -0.000108252 0.000222153 -6.35264e-05 4.96003e-05 -0.000252906 -0.000397594 -0.000688278 -0.000772134 -0.000619648 -0.000908435 -0.000654119 -0.000449648 -0.000473584 -0.000578821 -0.000618646 -0.000580594 -0.000574412 -0.000441884 -0.000556498 -0.000487667 -0.000517919 -0.000659107 -0.000165629 -0.000202313 -0.000146737 -0.000215667 -0.000159534 -0.000241937 -0.000201083 -0.000307793 -0.000296703 -0.000192926 -0.000240547 -0.000221794 -0.000533702 -0.000268967 -0.000264087 -0.000272834 -0.000189756 0.000165159 0.000206153 0.000165877 0.000139253 0.00010518 5.73751e-05 6.35457e-05 0.000216215 0.000341157 0.000255319 0.000215063 0.000402687 0.000347414 0.000227447 0.000241165 0.0003002 0.000474087 0.00046707 0.000254665 0.000408981 0.000725317 0.00057189 0.000800557 0.00067608 0.000461331 0.000484929 0.000525151 0.000401252 0.000562271 0.000503101 0.000404253 0.000376383 0.000142095 4.7992e-05 2.06559e-05 2.09723e-05 6.80277e-06 -1.55969e-05 -2.31633e-05 -2.68171e-05 -3.74885e-05 -4.41347e-05 -7.15826e-05 -5.44587e-05 -0.000102171 -0.000138828 -0.000112987 -0.000146789 -0.000106749 -0.000145845 -4.92502e-05 0.000110154 3.95557e-05 -0.000139637 -0.000278923 -0.000547119 -0.000469306 -0.000606672 -0.00052846 -0.000578089 -0.000554268 -0.000406946 -0.000455901 -0.000339746 -0.000568936 -0.000411388 -0.000444001 -0.000455322 -0.000488727 -0.000479602 -0.000481543 -0.000551741 -0.000429815 -0.000134849 -0.000227607 -0.00018441 -0.000178058 -0.000197253 -0.000223728 -0.000251116 -0.000243593 -0.000268215 -0.000178161 -0.000108147 -0.000160938 -0.000194751 -0.000266277 -0.000438189 -0.000130661 -0.000206161 -0.000313723 -0.000151069 -0.0001627 0.000210087 0.000167322 0.000161176 0.000104417 7.22802e-05 8.61576e-05 3.20692e-05 5.2285e-05 0.000206697 0.000185933 0.00035518 0.000261029 0.000172084 0.000218124 0.000138384 0.000395729 0.000255986 0.000463883 0.000466093 0.000470163 0.000365398 0.000399752 0.00036692 0.000421266 0.000264139 0.000293968 0.000326046 0.000465687 0.000393636 0.000177717 0.000454083 1.97802e-05 1.07272e-05 -1.50736e-06 -1.43864e-05 -2.31742e-05 -2.80058e-05 -4.22701e-05 -4.04952e-05 -8.24042e-05 -5.25186e-05 -7.63891e-05 -0.000102961 -0.000106468 -0.000131744 -0.000148475 9.8125e-05 -3.89907e-05 -4.61086e-05 -0.000292627 -0.000130957 -0.000304775 -0.00053071 -0.000418263 -0.000555465 -0.000442305 -0.000555917 -0.000397217 -0.000411422 -0.000356705 -0.000330977 -0.00037027 -0.0003755 -0.000335825 -0.000465514 -0.000394166 -0.000320047 -0.000350528 -0.000295011 -0.000399866 -0.000369614 -0.000452704 -0.00037084 -0.000165892 -0.000188501 -0.000134925 -0.000162996 -0.000140714 -0.000278836 -0.000137504 -0.00022688 -0.000222621 -0.000190111 -0.000238314 -0.000190316 -0.00015874 -0.000161804 -0.000243901 -0.000131844 -0.000217698 -0.000187096 0.000144772 0.000157918 6.68149e-05 6.73125e-05 6.95421e-05 4.56235e-05 2.82186e-05 4.70802e-05 0.000142386 0.000252434 0.000311449 0.000179921 0.000168808 0.000174273 0.000229669 0.000295678 0.000121749 0.000361601 0.000251385 0.000375297 0.000259813 0.000311105 0.000236507 0.000287644 0.000219678 0.000211631 0.000270698 0.000200787 0.000258778 0.000161736 0.00027837 0.000193816 2.15084e-05 -9.56458e-08 8.68455e-06 -3.41479e-07 -1.56577e-05 -1.32642e-05 -1.98645e-05 -3.75944e-05 -4.08897e-05 -5.23385e-05 -7.40323e-05 -9.1017e-05 -8.43722e-05 -0.000121134 3.49348e-05 -0.000141902 -5.55414e-05 -0.000101055 -0.000294393 -0.000344782 -0.000335914 -0.000432681 -0.000301466 -0.000275629 -0.000320643 -0.000398064 -0.00027336 -0.000281099 -0.000328707 -0.000337935 -0.000309668 -0.000280359 -0.000284883 -0.000361949 -0.000343518 -0.000323083 -0.000156635 -0.000112394 -0.000152336 -0.000133559 -0.000121963 -0.000184945 -0.000237233 -0.00022208 -0.000225503 -0.000204857 -0.00019793 -0.000256567 -0.000114848 -0.000226426 -0.000225726 -0.000258659 0.000138808 0.000115861 7.77829e-05 4.16915e-05 4.40019e-05 4.79415e-05 4.57286e-05 2.96913e-05 3.16294e-05 0.000267997 0.000231313 0.000149864 0.000148449 0.000142832 0.000108455 0.000107384 0.00016955 0.000303935 0.000289259 0.000306309 0.000196116 0.000248939 0.000174927 0.000207773 0.000198003 0.000170362 0.000136522 9.06442e-05 8.78335e-05 8.83558e-05 2.00807e-05 2.03794e-05 6.79719e-06 3.14831e-06 -4.41619e-06 -9.52511e-06 -2.30319e-05 -3.06178e-05 -4.63257e-05 -5.97658e-05 -6.8461e-05 -6.86633e-05 -6.90962e-05 -0.000103131 -3.50566e-05 -0.00018318 -5.88711e-05 -0.000119887 -0.00014713 -0.000310537 -0.00028762 -0.000307819 -0.000228944 -0.000308508 -0.000226753 -0.000304738 -0.000223765 -0.000227654 -0.000305207 -0.000234137 -0.000220715 -0.000224204 -0.000235854 -0.000144035 -0.00014551 -9.75873e-05 -0.000226113 -0.000127829 -0.000197288 -0.00023098 -0.00019234 -0.000132508 -0.000243787 -0.000290399 -0.000264433 -0.000278567 0.000137347 8.00067e-05 3.84876e-05 5.2812e-05 4.87571e-05 3.19508e-05 2.83056e-05 2.98483e-05 0.00017669 0.000136804 0.000199988 0.000127448 0.000167061 0.000228298 0.000138831 0.000266942 0.000207957 0.000179589 0.0001768 0.000138292 0.000124266 0.000122448 3.16518e-05 2.58995e-05 2.89382e-05 7.18496e-05 7.80698e-05 1.13785e-05 1.09497e-05 -1.01644e-05 -1.78271e-05 -3.94377e-05 -5.62948e-05 -4.39039e-05 -6.92038e-05 -7.99905e-05 -1.69238e-05 -0.000207014 -9.95256e-05 -5.23939e-05 -5.60632e-05 -0.000196596 -0.000126153 -0.000192857 -0.000224994 -0.00022655 -0.000209625 -9.70741e-05 -0.000205304 -0.000207044 -0.000217186 -0.000206201 -0.000113693 -0.000229877 -0.000134043 -0.000122739 -0.000211454 -0.00024592 -0.000151662 -0.000139981 -0.000109021 -0.000225896 -0.000154427 0.000105029 9.17777e-05 6.90518e-05 5.00848e-05 8.10193e-05 5.86647e-05 4.41025e-05 3.52038e-05 1.76404e-05 0.000117366 0.000130586 0.000195505 0.000193704 0.000155986 0.000139499 0.000192054 0.000140986 0.000149757 8.98624e-05 0.000142891 0.000100237 -1.95973e-06 5.08992e-05 2.49439e-05 7.52033e-05 3.61729e-06 2.31083e-05 7.88613e-06 -1.07375e-05 -2.71341e-05 -4.00486e-05 -1.42221e-05 -3.46124e-05 -5.64988e-05 -7.27429e-05 -9.04687e-05 -1.97681e-05 -2.08307e-05 -0.000107839 -3.69569e-05 -6.95216e-05 -7.73486e-05 -0.000147663 -0.000156607 -0.000186598 -0.000156289 -0.000102304 -0.00016089 -0.000256567 -0.000189815 -0.000179366 -0.000111007 -0.000113745 -0.000155522 -0.000115397 -0.000127958 -0.000100108 -0.000215869 -0.000105388 -0.000108259 -0.000186958 9.60782e-05 9.25143e-05 6.69647e-05 3.74836e-05 1.89063e-05 0.000116636 0.000166136 0.000105465 6.78818e-05 9.79836e-05 8.36899e-05 8.60596e-05 8.52774e-05 -1.81398e-06 4.97401e-05 -9.89101e-07 2.04812e-05 1.57343e-05 6.60237e-06 -3.00443e-05 -3.21982e-05 -2.36793e-05 -5.1443e-05 -4.99027e-05 -7.02751e-05 -0.000129446 -8.10137e-07 -1.81271e-05 -3.74149e-05 -6.37004e-05 -4.03663e-05 -9.49331e-05 -0.000141293 -0.000100001 -0.000144588 -8.67272e-05 -0.000143283 -0.000156518 -9.39